At. num,Sp. Name,Element,Valence,Ion Charge,El. Name,Isoel. Seq.,Ground Shells (a),Ground Config.,Ground Level,Ionized Level,Ionization Energy (b) (eV),Uncertainty (c) (eV),,,,,,,,,,,
100,Fm XXVIII,Fm,XXVIII,27,Fermium,Ta,[Xe].4f14.5d5,5d5,6S<5/2>,5d4 5D<0>,782,4,,,,,,,,,,,
100,Fm XXIX,Fm,XXIX,28,Fermium,Hf,[Xe].4f14.5d4,5d4,5D0,5d3 4F<3/2>,837,4,,,,,,,,,,,
100,Fm XXX,Fm,XXX,29,Fermium,Lu,[Xe].4f14.5d3,5d3,4F<3/2>,5d2 3F<2>,871,4,,,,,,,,,,,
100,Fm XXXI,Fm,XXXI,30,Fermium,Yb,[Xe].4f14.5d2,5d2,3F<2>,5d 2D<3/2>,909,4,,,,,,,,,,,
100,Fm XXXII,Fm,XXXII,31,Fermium,Tm,[Xe].4f14.5d,5d,2D<3/2>,4f14 1S<0>,944,4,,,,,,,,,,,
100,Fm XXXIII,Fm,XXXIII,32,Fermium,Er,[Xe].4f14,4f14,1S0,4f14.5p5 2P*<3/2>,1110,50,,,,,,,,,,,
100,Fm XXXIV,Fm,XXXIV,33,Fermium,Ho,[Cd].4f14.5p5,4f14.5p5,2P*<3/2>,4f14.5p4 3P<2>,1150,60,,,,,,,,,,,
100,Fm XXXV,Fm,XXXV,34,Fermium,Dy,[Cd].4f14.5p4,4f14.5p4,3P<2>,4f14.5p3 2P*<3/2>,1190,60,,,,,,,,,,,
100,Fm XXXVI,Fm,XXXVI,35,Fermium,Tb,[Cd].4f14.5p3,4f14.5p3,2P*<3/2>,4f14.5p2 3P<0>,1230,60,,,,,,,,,,,
100,Fm XXXVII,Fm,XXXVII,36,Fermium,Gd,[Cd].4f14.5p2,4f14.5p2,3P0,4f14.5p 2P*<1/2>,1370,70,,,,,,,,,,,
100,Fm XXXVIII,Fm,XXXVIII,37,Fermium,Eu,[Cd].4f14.5p,4f14.5p,2P*<1/2>,4f14 1S<0>,1420,70,,,,,,,,,,,
100,Fm XXXIX,Fm,XXXIX,38,Fermium,Sm,[Cd].4f14,4f14,1S0,4f14.5s 2S<1/2>,1550,80,,,,,,,,,,,
100,Fm XL,Fm,XL,39,Fermium,Pm,[Kr].4d10.4f14.5s,4f14.5s,2S<1/2>,4f14 1S<0>,1600,80,,,,,,,,,,,
100,Fm XLI,Fm,XLI,40,Fermium,Nd,[Kr].4d10.4f14,4f14,1S0,4f13 2F*<7/2>,1770,90,,,,,,,,,,,
100,Fm XLII,Fm,XLII,41,Fermium,Pr,[Kr].4d10.4f13,4f13,2F*<7/2>,4f12,1850,90,,,,,,,,,,,
100,Fm XLIII,Fm,XLIII,42,Fermium,Ce,[Kr].4d10.4f12,4f12,,4f11 4I*<15/2>,1940,100,,,,,,,,,,,
100,Fm XLIV,Fm,XLIV,43,Fermium,La,[Kr].4d10.4f11,4f11,4I*<15/2>,4f10 5I<8>,2030,100,,,,,,,,,,,
100,Fm XLV,Fm,XLV,44,Fermium,Ba,[Kr].4d10.4f10,4f10,5I<8>,4f9 6H*<15/2>,2120,110,,,,,,,,,,,
100,Fm XLVI,Fm,XLVI,45,Fermium,Cs,[Kr].4d10.4f9,4f9,6H*<15/2>,4f8 7F<6>,2210,110,,,,,,,,,,,
100,Fm XLVII,Fm,XLVII,46,Fermium,Xe,[Kr].4d10.4f8,4f8,7F<6>,4f7 8S*<7/2>,2300,120,,,,,,,,,,,
100,Fm XLVIII,Fm,XLVIII,47,Fermium,I,[Kr].4d10.4f7,4f7,8S*<7/2>,4f6 7F<0>,2390,120,,,,,,,,,,,
100,Fm XLIX,Fm,XLIX,48,Fermium,Te,[Kr].4d10.4f6,4f6,7F0,4f5 6H*<5/2>,2490,120,,,,,,,,,,,
100,Fm L,Fm,L,49,Fermium,Sb,[Kr].4d10.4f5,4f5,6H*<5/2>,4f4 5I<4>,2590,120,,,,,,,,,,,
100,Fm LI,Fm,LI,50,Fermium,Sn,[Kr].4d10.4f4,4f4,5I<4>,4f3 4I*<9/2>,2680,140,,,,,,,,,,,
100,Fm LII,Fm,LII,51,Fermium,In,[Kr].4d10.4f3,4f3,4I*<9/2>,4f2 3H<4>,2760,140,,,,,,,,,,,
100,Fm LIII,Fm,LIII,52,Fermium,Cd,[Kr].4d10.4f2,4f2,3H<4>,4f 2F*<5/2>,2850,150,,,,,,,,,,,
100,Fm LIV,Fm,LIV,53,Fermium,Ag,[Kr].4d10.4f,4f,2F*<5/2>,4d10 1S<0>,2950,150,,,,,,,,,,,
100,Fm LV,Fm,LV,54,Fermium,Pd,[Kr].4d10,4d10,1S0,4d9 2D<5/2>,3403,5,,,,,,,,,,,
100,Fm LVI,Fm,LVI,55,Fermium,Rh,[Kr].4d9,4d9,2D<5/2>,4d8 3F<4>,3480,5,,,,,,,,,,,
100,Fm LVII,Fm,LVII,56,Fermium,Ru,[Kr].4d8,4d8,3F<4>,4d7 4F<9/2>,3561,5,,,,,,,,,,,
100,Fm LVIII,Fm,LVIII,57,Fermium,Tc,[Kr].4d7,4d7,4F<9/2>,4d6 5D<4>,3647,6,,,,,,,,,,,
100,Fm LIX,Fm,LIX,58,Fermium,Mo,[Kr].4d6,4d6,5D<4>,"4d-4.4d+ (0,5/2)<5/2>",3730,6,,,,,,,,,,,
100,Fm LX,Fm,LX,59,Fermium,Nb,[Kr].4d5,4d-4.4d+,"(0,5/2)<5/2>",4d4 5D<0>,3810,7,,,,,,,,,,,
100,Fm LXI,Fm,LXI,60,Fermium,Zr,[Kr].4d4,4d4,5D0,4d3 4F<3/2>,3986,10,,,,,,,,,,,
100,Fm LXII,Fm,LXII,61,Fermium,Y,[Kr].4d3,4d3,4F<3/2>,4d2 3F<2>,4070,12,,,,,,,,,,,
100,Fm LXIII,Fm,LXIII,62,Fermium,Sr,[Kr].4d2,4d2,3F<2>,4d 2D<3/2>,4160,15,,,,,,,,,,,
100,Fm LXIV,Fm,LXIV,63,Fermium,Rb,[Kr].4d,4d,2D<3/2>,4p6 1S<0>,4245,19,,,,,,,,,,,
100,Fm LXV,Fm,LXV,64,Fermium,Kr,[Ar].3d10.4s2.4p6,4p6,1S0,4p5 2P*<3/2>,4586,24,,,,,,,,,,,
100,Fm LXVI,Fm,LXVI,65,Fermium,Br,[Ar].3d10.4s2.4p5,4p5,2P*<3/2>,4p4 3P<2>,4670,30,,,,,,,,,,,
100,Fm LXVII,Fm,LXVII,66,Fermium,Se,[Ar].3d10.4s2.4p4,4p4,3P<2>,"4p-2.4p+ (0,3/2)*<3/2>",4760,40,,,,,,,,,,,
100,Fm LXVIII,Fm,LXVIII,67,Fermium,As,[Ar].3d10.4s2.4p3,4p-2.4p+,"(0,3/2)*<3/2>",4p2 3P<0>,4840,40,,,,,,,,,,,
100,Fm LXIX,Fm,LXIX,68,Fermium,Ge,[Ar].3d10.4s2.4p2,4p2,3P0,4p 2P*<1/2>,5420,50,,,,,,,,,,,
100,Fm LXX,Fm,LXX,69,Fermium,Ga,[Ar].3d10.4s2.4p,4p,2P*<1/2>,4s2 1S<0>,5510,50,,,,,,,,,,,
100,Fm LXXI,Fm,LXXI,70,Fermium,Zn,[Ar].3d10.4s2,4s2,1S0,4s 2S<1/2>,5760,60,,,,,,,,,,,
100,Fm LXXII,Fm,LXXII,71,Fermium,Cu,[Ar].3d10.4s,4s,2S<1/2>,3d10 1S<0>,5860,60,,,,,,,,,,,
100,Fm LXXIII,Fm,LXXIII,72,Fermium,Ni,[Ar].3d10,3d10,1S0,3d9 2D<5/2>,9200,70,,,,,,,,,,,
100,Fm LXXIV,Fm,LXXIV,73,Fermium,Co,[Ar].3d9,3d9,2D<5/2>,3d8 3F<4>,9370,90,,,,,,,,,,,
100,Fm LXXV,Fm,LXXV,74,Fermium,Fe,[Ar].3d8,3d8,3F<4>,3d7 4F<9/2>,9570,90,,,,,,,,,,,
100,Fm LXXVI,Fm,LXXVI,75,Fermium,Mn,[Ar].3d7,3d7,4F<9/2>,"3d-4.3d+2 (0,4)<4>",9770,100,,,,,,,,,,,
100,Fm LXXVII,Fm,LXXVII,76,Fermium,Cr,[Ar].3d6,3d-4.3d+2,"(0,4)<4>","3d-4.3d+ (0,5/2)<5/2>",9970,110,,,,,,,,,,,
100,Fm LXXVIII,Fm,LXXVIII,77,Fermium,V,[Ar].3d5,3d-4.3d+,"(0,5/2)<5/2>",3d4 5D<0>,10160,120,,,,,,,,,,,
100,Fm LXXIX,Fm,LXXIX,78,Fermium,Ti,[Ar].3d4,3d4,5D0,3d3 4F<3/2>,10660,120,,,,,,,,,,,
100,Fm LXXX,Fm,LXXX,79,Fermium,Sc,[Ar].3d3,3d3,4F<3/2>,3d2 3F<2>,10860,140,,,,,,,,,,,
100,Fm LXXXI,Fm,LXXXI,80,Fermium,Ca,[Ar].3d2,3d2,3F<2>,3d 2D<3/2>,11080,150,,,,,,,,,,,
100,Fm LXXXII,Fm,LXXXII,81,Fermium,K,[Ar].3d,3d,2D<3/2>,3p6 1S<0>,11280,160,,,,,,,,,,,
100,Fm LXXXIII,Fm,LXXXIII,82,Fermium,Ar,[Ne].3s2.3p6,3p6,1S0,3p5 2P*<3/2>,11850,170,,,,,,,,,,,
100,Fm LXXXIV,Fm,LXXXIV,83,Fermium,Cl,[Ne].3s2.3p5,3p5,2P*<3/2>,3p4 3P<2>,12020,190,,,,,,,,,,,
100,Fm LXXXV,Fm,LXXXV,84,Fermium,S,[Ne].3s2.3p4,3p4,3P<2>,3p3 2P*<3/2>,12220,200,,,,,,,,,,,
100,Fm LXXXVI,Fm,LXXXVI,85,Fermium,P,[Ne].3s2.3p3,3p3,2P*<3/2>,3p2 3P<0>,12390,220,,,,,,,,,,,
100,Fm LXXXVII,Fm,LXXXVII,86,Fermium,Si,[Ne].3s2.3p2,3p2,3P0,3p 2P*<1/2>,14180,240,,,,,,,,,,,
100,Fm LXXXVIII,Fm,LXXXVIII,87,Fermium,Al,[Ne].3s2.3p,3p,2P*<1/2>,3s2 1S<0>,14400,250,,,,,,,,,,,
100,Fm LXXXIX,Fm,LXXXIX,88,Fermium,Mg,[Ne].3s2,3s2,1S0,3s 2S<1/2>,14800,300,,,,,,,,,,,
100,Fm XC,Fm,XC,89,Fermium,Na,[Ne].3s,3s,2S<1/2>,2p6 1S<0>,15000,300,,,,,,,,,,,
100,Fm XCI,Fm,XCI,90,Fermium,Ne,1s2.2s2.2p6,2p6,1S0,2p5 2P*<3/2>,30300,300,,,,,,,,,,,
100,Fm XCII,Fm,XCII,91,Fermium,F,1s2.2s2.2p5,2p5,2P*<3/2>,2p4 3P<2>,30800,300,,,,,,,,,,,
100,Fm XCIII,Fm,XCIII,92,Fermium,O,1s2.2s2.2p4,2p4,3P<2>,"2p2<1/2>.2p<3/2> (0,3/2)*<3/2>",31300,400,,,,,,,,,,,
100,Fm XCIV,Fm,XCIV,93,Fermium,N,1s2.2s2.2p3,2p2<1/2>.2p<3/2>,"(0,3/2)*<3/2>",2p2 3P<0>,31800,400,,,,,,,,,,,
100,Fm XCV,Fm,XCV,94,Fermium,C,1s2.2s2.2p2,2p2,3P0,2p 2P*<1/2>,38400,400,,,,,,,,,,,
100,Fm XCVI,Fm,XCVI,95,Fermium,B,1s2.2s2.2p,2p,2P*<1/2>,2s2 1S<0>,39100,400,,,,,,,,,,,
100,Fm XCVII,Fm,XCVII,96,Fermium,Be,1s2.2s2,2s2,1S0,2s 2S<1/2>,40000,400,,,,,,,,,,,
100,Fm XCVIII,Fm,XCVIII,97,Fermium,Li,1s2.2s,1s2.2s,2S<1/2>,1s2 1S<0>,40482.2,1.1,,,,,,,,,,,
100,Fm XCIX,Fm,XCIX,98,Fermium,He,1s2,1s2,1S0,1s 2S<1/2>,158171,6,,,,,,,,,,,
100,Fm C,Fm,C,99,Fermium,H,1s,1s,2S<1/2>,,160808,6,,,,,,,,,,,
101,Md I,Md,I,0,Mendelevium,Md,[Rn].5f13.7s2,5f13.7s2,2F*<7/2>,5f13.7s 3F*<4>,6.58,0.07,,,,,,,,,,,
101,Md II,Md,II,1,Mendelevium,Fm,[Rn].5f13.7s,5f13.7s,3F*<4>,5f13 2F*<7/2>,12.4,0.4,,,,,,,,,,,
101,Md III,Md,III,2,Mendelevium,Es,[Rn].5f13,5f13,2F*<7/2>,5f12 3H<6>,24.3,0.4,,,,,,,,,,,
101,Md IV,Md,IV,3,Mendelevium,Cf,[Rn].5f12,5f12,3H<6>,5f11 4I*<15/2>,40,0.4,,,,,,,,,,,
101,Md V,Md,V,4,Mendelevium,Bk,[Rn].5f11,5f11,4I*<15/2>,5f10 5I<8>,54.1,1.9,,,,,,,,,,,
101,Md VI,Md,VI,5,Mendelevium,Cm,[Rn].5f10,5f10,5I<8>,5f9 6H*<15/2>,76,2,,,,,,,,,,,
101,Md VII,Md,VII,6,Mendelevium,Am,[Rn].5f9,5f9,6H*<15/2>,5f8 7F<6>,96,2,,,,,,,,,,,
101,Md VIII,Md,VIII,7,Mendelevium,Pu,[Rn].5f8,5f8,7F<6>,5f7 8S*<7/2>,115.1,2.1,,,,,,,,,,,
101,Md IX,Md,IX,8,Mendelevium,Np,[Rn].5f7,5f7,8S*<7/2>,5f6 7F<0>,143.9,2.2,,,,,,,,,,,
101,Md X,Md,X,9,Mendelevium,U,[Rn].5f6,5f6,7F0,5f5 6H*<5/2>,162,2.2,,,,,,,,,,,
101,Md XI,Md,XI,10,Mendelevium,Pa,[Rn].5f5,5f5,6H*<5/2>,5f4 5I<4>,187,2.4,,,,,,,,,,,
101,Md XII,Md,XII,11,Mendelevium,Th,[Rn].5f4,5f4,5I<4>,5f7.6p2,215,11,,,,,,,,,,,
101,Md XIII,Md,XIII,12,Mendelevium,Ac,[Hg].5f7.6p2,5f7.6p2,*,5f6.6p2,240,12,,,,,,,,,,,
101,Md XIV,Md,XIV,13,Mendelevium,Ra,[Hg].5f6.6p2,5f6.6p2,,5f6.6p*,260,12,,,,,,,,,,,
101,Md XV,Md,XV,14,Mendelevium,Fr,[Hg].5f6.6p,5f6.6p,*,5f6,282,14,,,,,,,,,,,
101,Md XVI,Md,XVI,15,Mendelevium,Rn,[Hg].5f6,5f6,,5f5*,307,15,,,,,,,,,,,
101,Md XVII,Md,XVII,16,Mendelevium,At,[Hg].5f5,5f5,*,5f4,334,16,,,,,,,,,,,
101,Md XVIII,Md,XVIII,17,Mendelevium,Po,[Hg].5f4,5f4,,5f3*,360,17,,,,,,,,,,,
101,Md XIX,Md,XIX,18,Mendelevium,Bi,[Hg].5f3,5f3,*,5f2,386,20,,,,,,,,,,,
101,Md XX,Md,XX,19,Mendelevium,Pb,[Hg].5f2,5f2,,5f 2F*<5/2>,412,21,,,,,,,,,,,
101,Md XXI,Md,XXI,20,Mendelevium,Tl,[Hg].5f,5f,2F*<5/2>,6s2 1S<0>,438,22,,,,,,,,,,,
101,Md XXII,Md,XXII,21,Mendelevium,Hg,[Xe].4f14.5d10.6s2,6s2,1S0,6s 2S<1/2>,462,4,,,,,,,,,,,
101,Md XXIII,Md,XXIII,22,Mendelevium,Au,[Xe].4f14.5d10.6s,6s,2S<1/2>,5d10 1S<0>,486,4,,,,,,,,,,,
101,Md XXIV,Md,XXIV,23,Mendelevium,Pt,[Xe].4f14.5d10,5d10,1S0,5d9 2D<5/2>,659,4,,,,,,,,,,,
101,Md XXV,Md,XXV,24,Mendelevium,Ir,[Xe].4f14.5d9,5d9,2D<5/2>,5d8 3F<4>,690,4,,,,,,,,,,,
101,Md XXVI,Md,XXVI,25,Mendelevium,Os,[Xe].4f14.5d8,5d8,3F<4>,5d7 4F<9/2>,723,4,,,,,,,,,,,
101,Md XXVII,Md,XXVII,26,Mendelevium,Re,[Xe].4f14.5d7,5d7,4F<9/2>,5d6 5D<4>,760,4,,,,,,,,,,,
101,Md XXVIII,Md,XXVIII,27,Mendelevium,W,[Xe].4f14.5d6,5d6,5D<4>,5d5 6S<5/2>,794,4,,,,,,,,,,,
101,Md XXIX,Md,XXIX,28,Mendelevium,Ta,[Xe].4f14.5d5,5d5,6S<5/2>,5d4 5D<0>,828,4,,,,,,,,,,,
101,Md XXX,Md,XXX,29,Mendelevium,Hf,[Xe].4f14.5d4,5d4,5D0,5d3 4F<3/2>,885,4,,,,,,,,,,,
101,Md XXXI,Md,XXXI,30,Mendelevium,Lu,[Xe].4f14.5d3,5d3,4F<3/2>,5d2 3F<2>,920,4,,,,,,,,,,,
101,Md XXXII,Md,XXXII,31,Mendelevium,Yb,[Xe].4f14.5d2,5d2,3F<2>,5d 2D<3/2>,958,4,,,,,,,,,,,
101,Md XXXIII,Md,XXXIII,32,Mendelevium,Tm,[Xe].4f14.5d,5d,2D<3/2>,4f14 1S<0>,994,4,,,,,,,,,,,
101,Md XXXIV,Md,XXXIV,33,Mendelevium,Er,[Xe].4f14,4f14,1S0,4f14.5p5 2P*<3/2>,1160,60,,,,,,,,,,,
101,Md XXXV,Md,XXXV,34,Mendelevium,Ho,[Cd].4f14.5p5,4f14.5p5,2P*<3/2>,4f14.5p4 3P<2>,1210,60,,,,,,,,,,,
101,Md XXXVI,Md,XXXVI,35,Mendelevium,Dy,[Cd].4f14.5p4,4f14.5p4,3P<2>,4f14.5p3 2P*<3/2>,1250,60,,,,,,,,,,,
101,Md XXXVII,Md,XXXVII,36,Mendelevium,Tb,[Cd].4f14.5p3,4f14.5p3,2P*<3/2>,4f14.5p2 3P<0>,1290,60,,,,,,,,,,,
101,Md XXXVIII,Md,XXXVIII,37,Mendelevium,Gd,[Cd].4f14.5p2,4f14.5p2,3P0,4f14.5p 2P*<1/2>,1430,70,,,,,,,,,,,
101,Md XXXIX,Md,XXXIX,38,Mendelevium,Eu,[Cd].4f14.5p,4f14.5p,2P*<1/2>,4f14 1S<0>,1480,70,,,,,,,,,,,
101,Md XL,Md,XL,39,Mendelevium,Sm,[Cd].4f14,4f14,1S0,4f14.5s 2S<1/2>,1620,80,,,,,,,,,,,
101,Md XLI,Md,XLI,40,Mendelevium,Pm,[Kr].4d10.4f14.5s,4f14.5s,2S<1/2>,4f14 1S<0>,1660,80,,,,,,,,,,,
101,Md XLII,Md,XLII,41,Mendelevium,Nd,[Kr].4d10.4f14,4f14,1S0,4f13 2F*<7/2>,1840,90,,,,,,,,,,,
101,Md XLIII,Md,XLIII,42,Mendelevium,Pr,[Kr].4d10.4f13,4f13,2F*<7/2>,4f12,1930,100,,,,,,,,,,,
101,Md XLIV,Md,XLIV,43,Mendelevium,Ce,[Kr].4d10.4f12,4f12,,4f11 4I*<15/2>,2020,100,,,,,,,,,,,
101,Md XLV,Md,XLV,44,Mendelevium,La,[Kr].4d10.4f11,4f11,4I*<15/2>,4f10 5I<8>,2110,110,,,,,,,,,,,
101,Md XLVI,Md,XLVI,45,Mendelevium,Ba,[Kr].4d10.4f10,4f10,5I<8>,4f9 6H*<15/2>,2200,110,,,,,,,,,,,
101,Md XLVII,Md,XLVII,46,Mendelevium,Cs,[Kr].4d10.4f9,4f9,6H*<15/2>,4f8 7F<6>,2290,120,,,,,,,,,,,
101,Md XLVIII,Md,XLVIII,47,Mendelevium,Xe,[Kr].4d10.4f8,4f8,7F<6>,4f7 8S*<7/2>,2390,120,,,,,,,,,,,
101,Md XLIX,Md,XLIX,48,Mendelevium,I,[Kr].4d10.4f7,4f7,8S*<7/2>,4f6 7F<0>,2480,120,,,,,,,,,,,
101,Md L,Md,L,49,Mendelevium,Te,[Kr].4d10.4f6,4f6,7F0,4f5 6H*<5/2>,2580,120,,,,,,,,,,,
101,Md LI,Md,LI,50,Mendelevium,Sb,[Kr].4d10.4f5,4f5,6H*<5/2>,4f4 5I<4>,2680,140,,,,,,,,,,,
101,Md LII,Md,LII,51,Mendelevium,Sn,[Kr].4d10.4f4,4f4,5I<4>,4f3 4I*<9/2>,2760,140,,,,,,,,,,,
101,Md LIII,Md,LIII,52,Mendelevium,In,[Kr].4d10.4f3,4f3,4I*<9/2>,4f2 3H<4>,2860,150,,,,,,,,,,,
101,Md LIV,Md,LIV,53,Mendelevium,Cd,[Kr].4d10.4f2,4f2,3H<4>,4f 2F*<5/2>,2950,150,,,,,,,,,,,
101,Md LV,Md,LV,54,Mendelevium,Ag,[Kr].4d10.4f,4f,2F*<5/2>,4d10 1S<0>,3050,150,,,,,,,,,,,
101,Md LVI,Md,LVI,55,Mendelevium,Pd,[Kr].4d10,4d10,1S0,4d9 2D<5/2>,3513,5,,,,,,,,,,,
101,Md LVII,Md,LVII,56,Mendelevium,Rh,[Kr].4d9,4d9,2D<5/2>,4d8 3F<4>,3592,5,,,,,,,,,,,
101,Md LVIII,Md,LVIII,57,Mendelevium,Ru,[Kr].4d8,4d8,3F<4>,4d7 4F<9/2>,3675,6,,,,,,,,,,,
101,Md LIX,Md,LIX,58,Mendelevium,Tc,[Kr].4d7,4d7,4F<9/2>,4d6 5D<4>,3762,6,,,,,,,,,,,
101,Md LX,Md,LX,59,Mendelevium,Mo,[Kr].4d6,4d6,5D<4>,"4d-4.4d+ (0,5/2)<5/2>",3845,7,,,,,,,,,,,
101,Md LXI,Md,LXI,60,Mendelevium,Nb,[Kr].4d5,4d-4.4d+,"(0,5/2)<5/2>",4d4 5D<0>,3926,10,,,,,,,,,,,
101,Md LXII,Md,LXII,61,Mendelevium,Zr,[Kr].4d4,4d4,5D0,4d3 4F<3/2>,4109,12,,,,,,,,,,,
101,Md LXIII,Md,LXIII,62,Mendelevium,Y,[Kr].4d3,4d3,4F<3/2>,4d2 3F<2>,4194,15,,,,,,,,,,,
101,Md LXIV,Md,LXIV,63,Mendelevium,Sr,[Kr].4d2,4d2,3F<2>,4d 2D<3/2>,4286,19,,,,,,,,,,,
101,Md LXV,Md,LXV,64,Mendelevium,Rb,[Kr].4d,4d,2D<3/2>,4p6 1S<0>,4371,24,,,,,,,,,,,
101,Md LXVI,Md,LXVI,65,Mendelevium,Kr,[Ar].3d10.4s2.4p6,4p6,1S0,4p5 2P*<3/2>,4720,30,,,,,,,,,,,
101,Md LXVII,Md,LXVII,66,Mendelevium,Br,[Ar].3d10.4s2.4p5,4p5,2P*<3/2>,4p4 3P<2>,4800,40,,,,,,,,,,,
101,Md LXVIII,Md,LXVIII,67,Mendelevium,Se,[Ar].3d10.4s2.4p4,4p4,3P<2>,"4p-2.4p+ (0,3/2)*<3/2>",4890,40,,,,,,,,,,,
101,Md LXIX,Md,LXIX,68,Mendelevium,As,[Ar].3d10.4s2.4p3,4p-2.4p+,"(0,3/2)*<3/2>",4p2 3P<0>,4970,50,,,,,,,,,,,
101,Md LXX,Md,LXX,69,Mendelevium,Ge,[Ar].3d10.4s2.4p2,4p2,3P0,4p 2P*<1/2>,5580,50,,,,,,,,,,,
101,Md LXXI,Md,LXXI,70,Mendelevium,Ga,[Ar].3d10.4s2.4p,4p,2P*<1/2>,4s2 1S<0>,5680,60,,,,,,,,,,,
101,Md LXXII,Md,LXXII,71,Mendelevium,Zn,[Ar].3d10.4s2,4s2,1S0,4s 2S<1/2>,5930,60,,,,,,,,,,,
101,Md LXXIII,Md,LXXIII,72,Mendelevium,Cu,[Ar].3d10.4s,4s,2S<1/2>,3d10 1S<0>,6030,70,,,,,,,,,,,
101,Md LXXIV,Md,LXXIV,73,Mendelevium,Ni,[Ar].3d10,3d10,1S0,3d9 2D<5/2>,9430,90,,,,,,,,,,,
101,Md LXXV,Md,LXXV,74,Mendelevium,Co,[Ar].3d9,3d9,2D<5/2>,3d8 3F<4>,9620,90,,,,,,,,,,,
101,Md LXXVI,Md,LXXVI,75,Mendelevium,Fe,[Ar].3d8,3d8,3F<4>,3d7 4F<9/2>,9810,100,,,,,,,,,,,
101,Md LXXVII,Md,LXXVII,76,Mendelevium,Mn,[Ar].3d7,3d7,4F<9/2>,"3d-4.3d+2 (0,4)<4>",10020,110,,,,,,,,,,,
101,Md LXXVIII,Md,LXXVIII,77,Mendelevium,Cr,[Ar].3d6,3d-4.3d+2,"(0,4)<4>","3d-4.3d+ (0,5/2)<5/2>",10220,120,,,,,,,,,,,
101,Md LXXIX,Md,LXXIX,78,Mendelevium,V,[Ar].3d5,3d-4.3d+,"(0,5/2)<5/2>",3d4 5D<0>,10410,120,,,,,,,,,,,
101,Md LXXX,Md,LXXX,79,Mendelevium,Ti,[Ar].3d4,3d4,5D0,3d3 4F<3/2>,10930,140,,,,,,,,,,,
101,Md LXXXI,Md,LXXXI,80,Mendelevium,Sc,[Ar].3d3,3d3,4F<3/2>,3d2 3F<2>,11130,150,,,,,,,,,,,
101,Md LXXXII,Md,LXXXII,81,Mendelevium,Ca,[Ar].3d2,3d2,3F<2>,3d 2D<3/2>,11350,160,,,,,,,,,,,
101,Md LXXXIII,Md,LXXXIII,82,Mendelevium,K,[Ar].3d,3d,2D<3/2>,3p6 1S<0>,11560,170,,,,,,,,,,,
101,Md LXXXIV,Md,LXXXIV,83,Mendelevium,Ar,[Ne].3s2.3p6,3p6,1S0,3p5 2P*<3/2>,12130,190,,,,,,,,,,,
101,Md LXXXV,Md,LXXXV,84,Mendelevium,Cl,[Ne].3s2.3p5,3p5,2P*<3/2>,3p4 3P<2>,12310,200,,,,,,,,,,,
101,Md LXXXVI,Md,LXXXVI,85,Mendelevium,S,[Ne].3s2.3p4,3p4,3P<2>,3p3 2P*<3/2>,12500,220,,,,,,,,,,,
101,Md LXXXVII,Md,LXXXVII,86,Mendelevium,P,[Ne].3s2.3p3,3p3,2P*<3/2>,3p2 3P<0>,12680,240,,,,,,,,,,,
101,Md LXXXVIII,Md,LXXXVIII,87,Mendelevium,Si,[Ne].3s2.3p2,3p2,3P0,3p 2P*<1/2>,14560,250,,,,,,,,,,,
101,Md LXXXIX,Md,LXXXIX,88,Mendelevium,Al,[Ne].3s2.3p,3p,2P*<1/2>,3s2 1S<0>,14800,300,,,,,,,,,,,
101,Md XC,Md,XC,89,Mendelevium,Mg,[Ne].3s2,3s2,1S0,3s 2S<1/2>,15200,300,,,,,,,,,,,
101,Md XCI,Md,XCI,90,Mendelevium,Na,[Ne].3s,3s,2S<1/2>,2p6 1S<0>,15400,300,,,,,,,,,,,
101,Md XCII,Md,XCII,91,Mendelevium,Ne,1s2.2s2.2p6,2p6,1S0,2p5 2P*<3/2>,31000,300,,,,,,,,,,,
101,Md XCIII,Md,XCIII,92,Mendelevium,F,1s2.2s2.2p5,2p5,2P*<3/2>,2p4 3P<2>,31500,400,,,,,,,,,,,
101,Md XCIV,Md,XCIV,93,Mendelevium,O,1s2.2s2.2p4,2p4,3P<2>,"2p2<1/2>.2p<3/2> (0,3/2)*<3/2>",32000,400,,,,,,,,,,,
101,Md XCV,Md,XCV,94,Mendelevium,N,1s2.2s2.2p3,2p2<1/2>.2p<3/2>,"(0,3/2)*<3/2>",2p2 3P<0>,32500,400,,,,,,,,,,,
101,Md XCVI,Md,XCVI,95,Mendelevium,C,1s2.2s2.2p2,2p2,3P0,2p 2P*<1/2>,39500,400,,,,,,,,,,,
101,Md XCVII,Md,XCVII,96,Mendelevium,B,1s2.2s2.2p,2p,2P*<1/2>,2s2 1S<0>,40100,400,,,,,,,,,,,
101,Md XCVIII,Md,XCVIII,97,Mendelevium,Be,1s2.2s2,2s2,1S0,2s 2S<1/2>,41000,400,,,,,,,,,,,
101,Md XCIX,Md,XCIX,98,Mendelevium,Li,1s2.2s,1s2.2s,2S<1/2>,1s2 1S<0>,41548,6,,,,,,,,,,,
101,Md C,Md,C,99,Mendelevium,He,1s2,1s2,1S0,1s 2S<1/2>,162066,7,,,,,,,,,,,
101,Md CI,Md,CI,100,Mendelevium,H,1s,1s,2S<1/2>,,164764,7,,,,,,,,,,,
102,No I,No,I,0,Nobelium,No,[Rn].5f14.7s2,7s2,1S0,5f14.7s 2S<1/2>,6.62621,0.00005,,,,,,,,,,,
102,No II,No,II,1,Nobelium,Md,[Rn].5f14.7s,5f14.7s,2S<1/2>,5f14 1S<0>,12.93,0.04,,,,,,,,,,,
102,No III,No,III,2,Nobelium,Fm,[Rn].5f14,5f14,1S0,5f13 2F*<7/2>,25.8,0.4,,,,,,,,,,,
102,No IV,No,IV,3,Nobelium,Es,[Rn].5f13,5f13,2F*<7/2>,5f12 3H<6>,41.5,0.4,,,,,,,,,,,
102,No V,No,V,4,Nobelium,Cf,[Rn].5f12,5f12,3H<6>,5f11 4I*<15/2>,60,1.9,,,,,,,,,,,
102,No VI,No,VI,5,Nobelium,Bk,[Rn].5f11,5f11,4I*<15/2>,5f10 5I<8>,74,2,,,,,,,,,,,
102,No VII,No,VII,6,Nobelium,Cm,[Rn].5f10,5f10,5I<8>,5f9 6H*<15/2>,97,2,,,,,,,,,,,
102,No VIII,No,VIII,7,Nobelium,Am,[Rn].5f9,5f9,6H*<15/2>,5f8 7F<6>,119,2.1,,,,,,,,,,,
102,No IX,No,IX,8,Nobelium,Pu,[Rn].5f8,5f8,7F<6>,5f7 8S*<7/2>,140,2.2,,,,,,,,,,,
102,No X,No,X,9,Nobelium,Np,[Rn].5f7,5f7,8S*<7/2>,5f6 7F<0>,170,2.2,,,,,,,,,,,
102,No XI,No,XI,10,Nobelium,U,[Rn].5f6,5f6,7F0,5f5 6H*<5/2>,187,2.4,,,,,,,,,,,
102,No XII,No,XII,11,Nobelium,Pa,[Rn].5f5,5f5,6H*<5/2>,5f4 5I<4>,216,2.5,,,,,,,,,,,
102,No XIII,No,XIII,12,Nobelium,Th,[Rn].5f4,5f4,5I<4>,5f7.6p2,246,12,,,,,,,,,,,
102,No XIV,No,XIV,13,Nobelium,Ac,[Hg].5f7.6p2,5f7.6p2,*,5f7.6p,267,14,,,,,,,,,,,
102,No XV,No,XV,14,Nobelium,Ra,[Hg].5f7.6p,5f7.6p,,5f7*,285,12,,,,,,,,,,,
102,No XVI,No,XVI,15,Nobelium,Fr,[Hg].5f7,5f7,*,5f6,312,16,,,,,,,,,,,
102,No XVII,No,XVII,16,Nobelium,Rn,[Hg].5f6,5f6,,5f5*,341,17,,,,,,,,,,,
102,No XVIII,No,XVIII,17,Nobelium,At,[Hg].5f5,5f5,*,5f4,367,19,,,,,,,,,,,
102,No XIX,No,XIX,18,Nobelium,Po,[Hg].5f4,5f4,,5f3*,394,20,,,,,,,,,,,
102,No XX,No,XX,19,Nobelium,Bi,[Hg].5f3,5f3,*,5f2,422,21,,,,,,,,,,,
102,No XXI,No,XXI,20,Nobelium,Pb,[Hg].5f2,5f2,,5f 2F*<5/2>,448,22,,,,,,,,,,,
102,No XXII,No,XXII,21,Nobelium,Tl,[Hg].5f,5f,2F*<5/2>,6s2 1S<0>,475,24,,,,,,,,,,,
102,No XXIII,No,XXIII,22,Nobelium,Hg,[Xe].4f14.5d10.6s2,6s2,1S0,6s 2S<1/2>,496,4,,,,,,,,,,,
102,No XXIV,No,XXIV,23,Nobelium,Au,[Xe].4f14.5d10.6s,6s,2S<1/2>,5d10 1S<0>,520,4,,,,,,,,,,,
102,No XXV,No,XXV,24,Nobelium,Pt,[Xe].4f14.5d10,5d10,1S0,5d9 2D<5/2>,701,4,,,,,,,,,,,
102,No XXVI,No,XXVI,25,Nobelium,Ir,[Xe].4f14.5d9,5d9,2D<5/2>,5d8 3F<4>,734,4,,,,,,,,,,,
102,No XXVII,No,XXVII,26,Nobelium,Os,[Xe].4f14.5d8,5d8,3F<4>,5d7 4F<9/2>,768,4,,,,,,,,,,,
102,No XXVIII,No,XXVIII,27,Nobelium,Re,[Xe].4f14.5d7,5d7,4F<9/2>,5d6 5D<4>,805,4,,,,,,,,,,,
102,No XXIX,No,XXIX,28,Nobelium,W,[Xe].4f14.5d6,5d6,5D<4>,5d5 6S<5/2>,840,4,,,,,,,,,,,
102,No XXX,No,XXX,29,Nobelium,Ta,[Xe].4f14.5d5,5d5,6S<5/2>,5d4 5D<0>,875,4,,,,,,,,,,,
102,No XXXI,No,XXXI,30,Nobelium,Hf,[Xe].4f14.5d4,5d4,5D0,5d3 4F<3/2>,934,4,,,,,,,,,,,
102,No XXXII,No,XXXII,31,Nobelium,Lu,[Xe].4f14.5d3,5d3,4F<3/2>,5d2 3F<2>,969,4,,,,,,,,,,,
102,No XXXIII,No,XXXIII,32,Nobelium,Yb,[Xe].4f14.5d2,5d2,3F<2>,5d 2D<3/2>,1010,4,,,,,,,,,,,
102,No XXXIV,No,XXXIV,33,Nobelium,Tm,[Xe].4f14.5d,5d,2D<3/2>,4f14 1S<0>,1045,5,,,,,,,,,,,
102,No XXXV,No,XXXV,34,Nobelium,Er,[Xe].4f14,4f14,1S0,4f14.5p5 2P*<3/2>,1220,60,,,,,,,,,,,
102,No XXXVI,No,XXXVI,35,Nobelium,Ho,[Cd].4f14.5p5,4f14.5p5,2P*<3/2>,4f14.5p4 3P<2>,1260,60,,,,,,,,,,,
102,No XXXVII,No,XXXVII,36,Nobelium,Dy,[Cd].4f14.5p4,4f14.5p4,3P<2>,4f14.5p3 2P*<3/2>,1300,70,,,,,,,,,,,
102,No XXXVIII,No,XXXVIII,37,Nobelium,Tb,[Cd].4f14.5p3,4f14.5p3,2P*<3/2>,4f14.5p2 3P<0>,1350,70,,,,,,,,,,,
102,No XXXIX,No,XXXIX,38,Nobelium,Gd,[Cd].4f14.5p2,4f14.5p2,3P0,4f14.5p 2P*<1/2>,1500,70,,,,,,,,,,,
102,No XL,No,XL,39,Nobelium,Eu,[Cd].4f14.5p,4f14.5p,2P*<1/2>,4f14 1S<0>,1550,80,,,,,,,,,,,
102,No XLI,No,XLI,40,Nobelium,Sm,[Cd].4f14,4f14,1S0,4f14.5s 2S<1/2>,1680,80,,,,,,,,,,,
102,No XLII,No,XLII,41,Nobelium,Pm,[Kr].4d10.4f14.5s,4f14.5s,2S<1/2>,4f14 1S<0>,1730,90,,,,,,,,,,,
102,No XLIII,No,XLIII,42,Nobelium,Nd,[Kr].4d10.4f14,4f14,1S0,4f13 2F*<7/2>,1920,100,,,,,,,,,,,
102,No XLIV,No,XLIV,43,Nobelium,Pr,[Kr].4d10.4f13,4f13,2F*<7/2>,4f12,2010,100,,,,,,,,,,,
102,No XLV,No,XLV,44,Nobelium,Ce,[Kr].4d10.4f12,4f12,,4f11 4I*<15/2>,2110,110,,,,,,,,,,,