At. num,Sp. Name,Element,Valence,Ion Charge,El. Name,Isoel. Seq.,Ground Shells (a),Ground Config.,Ground Level,Ionized Level,Ionization Energy (b) (eV),Uncertainty (c) (eV),,,,,,,,,,,
64,Gd XLIV,Gd,XLIV,43,Gadolinium,Sc,[Ar].3d3,3d3,4F<3/2>,3d2 3F<2>,3424,4,,,,,,,,,,,
64,Gd XLV,Gd,XLV,44,Gadolinium,Ca,[Ar].3d2,3d2,3F<2>,3d 2D<3/2>,3546,4,,,,,,,,,,,
64,Gd XLVI,Gd,XLVI,45,Gadolinium,K,[Ar].3d,3d,2D<3/2>,3p6 1S<0>,3660,4,,,,,,,,,,,
64,Gd XLVII,Gd,XLVII,46,Gadolinium,Ar,[Ne].3s2.3p6,3p6,1S0,3p5 2P*<3/2>,3980,4,,,,,,,,,,,
64,Gd XLVIII,Gd,XLVIII,47,Gadolinium,Cl,[Ne].3s2.3p5,3p5,2P*<3/2>,3p4 3P<2>,4080,4,,,,,,,,,,,
64,Gd XLIX,Gd,XLIX,48,Gadolinium,S,[Ne].3s2.3p4,3p4,3P<2>,3p3 2P*<3/2>,4191,4,,,,,,,,,,,
64,Gd L,Gd,L,49,Gadolinium,P,[Ne].3s2.3p3,3p3,2P*<3/2>,3p2 3P<0>,4294,4,,,,,,,,,,,
64,Gd LI,Gd,LI,50,Gadolinium,Si,[Ne].3s2.3p2,3p2,3P0,3p 2P*<1/2>,4578,4,,,,,,,,,,,
64,Gd LII,Gd,LII,51,Gadolinium,Al,[Ne].3s2.3p,3p,2P*<1/2>,3s2 1S<0>,4693,4,,,,,,,,,,,
64,Gd LIII,Gd,LIII,52,Gadolinium,Mg,[Ne].3s2,3s2,1S0,3s 2S<1/2>,4914,4,,,,,,,,,,,
64,Gd LIV,Gd,LIV,53,Gadolinium,Na,[Ne].3s,3s,2S<1/2>,2p6 1S<0>,5025,5,,,,,,,,,,,
64,Gd LV,Gd,LV,54,Gadolinium,Ne,1s2.2s2.2p6,2p6,1S0,2p5 2P*<3/2>,11273,5,,,,,,,,,,,
64,Gd LVI,Gd,LVI,55,Gadolinium,F,1s2.2s2.2p5,2p5,2P*<3/2>,2p4 3P<2>,11552,5,,,,,,,,,,,
64,Gd LVII,Gd,LVII,56,Gadolinium,O,1s2.2s2.2p4,2p4,3P<2>,"2p2<1/2>.2p<3/2> (0,3/2)*<3/2>",11861,5,,,,,,,,,,,
64,Gd LVIII,Gd,LVIII,57,Gadolinium,N,1s2.2s2.2p3,2p2<1/2>.2p<3/2>,"(0,3/2)*<3/2>",2p2 3P<0>,12147,6,,,,,,,,,,,
64,Gd LIX,Gd,LIX,58,Gadolinium,C,1s2.2s2.2p2,2p2,3P0,2p 2P*<1/2>,13183,6,,,,,,,,,,,
64,Gd LX,Gd,LX,59,Gadolinium,B,1s2.2s2.2p,2p,2P*<1/2>,2s2 1S<0>,13521,7,,,,,,,,,,,
64,Gd LXI,Gd,LXI,60,Gadolinium,Be,1s2.2s2,2s2,1S0,2s 2S<1/2>,13943,10,,,,,,,,,,,
64,Gd LXII,Gd,LXII,61,Gadolinium,Li,1s2.2s,1s2.2s,2S<1/2>,1s2 1S<0>,14224.57,0.1,,,,,,,,,,,
64,Gd LXIII,Gd,LXIII,62,Gadolinium,He,1s2,1s2,1S0,1s 2S<1/2>,57783.91,0.08,,,,,,,,,,,
64,Gd LXIV,Gd,LXIV,63,Gadolinium,H,1s,1s,2S<1/2>,,59065.54,0.05,,,,,,,,,,,
65,Tb I,Tb,I,0,Terbium,Tb,[Xe].4f9.6s2,4f9.6s2,6H*<15/2>,"4f9.(6H*).5p6.6s (15/2,1/2)*<8>",5.8638,0.0006,,,,,,,,,,,
65,Tb II,Tb,II,1,Terbium,Gd,[Xe].4f9.6s,4f9.(6H*<15/2>).6s<1/2>,"(15/2,1/2)*<8>",4f9.5p6 6H*<15/2>,11.513,0.02,,,,,,,,,,,
65,Tb III,Tb,III,2,Terbium,Eu,[Xe].4f9,4f9,6H*<15/2>,4f8.5p6 7F<6>,21.82,0.03,,,,,,,,,,,
65,Tb IV,Tb,IV,3,Terbium,Sm,[Xe].4f8,4f8,7F<6>,4f7.5s2.5p6 8S*<7/2>,39.33,0.04,,,,,,,,,,,
65,Tb V,Tb,V,4,Terbium,Pm,[Xe].4f7,4f7.5s2.5p6,8S*<7/2>,4f7.5s2.5p5,66.5,0.3,,,,,,,,,,,
65,Tb VI,Tb,VI,5,Terbium,Nd,[Cd].4f7.5p5,4f7.5s2.5p5,,4f8.5s2.5p3*,90,4,,,,,,,,,,,
65,Tb VII,Tb,VII,6,Terbium,Pr,[Cd].4f8.5p3,4f8.5s2.5p3,*,4f7.5s2.5p3,108,5,,,,,,,,,,,
65,Tb VIII,Tb,VIII,7,Terbium,Ce,[Cd].4f7.5p3,4f7.5s2.5p3,,4f7.5s2.5p2*,125,6,,,,,,,,,,,
65,Tb IX,Tb,IX,8,Terbium,La,[Cd].4f7.5p2,4f7.5s2.5p2,*,4f6.5s2.5p2,143,7,,,,,,,,,,,
65,Tb X,Tb,X,9,Terbium,Ba,[Cd].4f6.5p2,4f6.5s2.5p2,,4f6.5s2.5p*,168,8,,,,,,,,,,,
65,Tb XI,Tb,XI,10,Terbium,Cs,[Cd].4f6.5p,4f6.5s2.5p,*,4f6.5s2,186,9,,,,,,,,,,,
65,Tb XII,Tb,XII,11,Terbium,Xe,[Cd].4f6,4f6.5s2,,4f5.5s2*,216,11,,,,,,,,,,,
65,Tb XIII,Tb,XIII,12,Terbium,I,[Cd].4f5,4f5.5s2,*,4f4.5s2,250,12,,,,,,,,,,,
65,Tb XIV,Tb,XIV,13,Terbium,Te,[Cd].4f4,4f4.5s2,,4f5 6H*<5/2>,273,14,,,,,,,,,,,
65,Tb XV,Tb,XV,14,Terbium,Sb,[Kr].4d10.4f5,4f5,6H*<5/2>,4f4 5I<4>,294,15,,,,,,,,,,,
65,Tb XVI,Tb,XVI,15,Terbium,Sn,[Kr].4d10.4f4,4f4,5I<4>,4f3 4I*<9/2>,325,16,,,,,,,,,,,
65,Tb XVII,Tb,XVII,16,Terbium,In,[Kr].4d10.4f3,4f3,4I*<9/2>,4f2 3H<4>,358,17,,,,,,,,,,,
65,Tb XVIII,Tb,XVIII,17,Terbium,Cd,[Kr].4d10.4f2,4f2,3H<4>,4f 2F*<5/2>,393,20,,,,,,,,,,,
65,Tb XIX,Tb,XIX,18,Terbium,Ag,[Kr].4d10.4f,4f,2F*<5/2>,4d10 1S<0>,426.6,2.5,,,,,,,,,,,
65,Tb XX,Tb,XX,19,Terbium,Pd,[Kr].4d10,4d10,1S0,4d9 2D<5/2>,613,4,,,,,,,,,,,
65,Tb XXI,Tb,XXI,20,Terbium,Rh,[Kr].4d9,4d9,2D<5/2>,4d8 3F<4>,651,4,,,,,,,,,,,
65,Tb XXII,Tb,XXII,21,Terbium,Ru,[Kr].4d8,4d8,3F<4>,4d7 4F<9/2>,690,4,,,,,,,,,,,
65,Tb XXIII,Tb,XXIII,22,Terbium,Tc,[Kr].4d7,4d7,4F<9/2>,4d6 5D<4>,732,4,,,,,,,,,,,
65,Tb XXIV,Tb,XXIV,23,Terbium,Mo,[Kr].4d6,4d6,5D<4>,4d5 6S<5/2>,772,4,,,,,,,,,,,
65,Tb XXV,Tb,XXV,24,Terbium,Nb,[Kr].4d5,4d5,6S<5/2>,4d4 5D<0>,816,4,,,,,,,,,,,
65,Tb XXVI,Tb,XXVI,25,Terbium,Zr,[Kr].4d4,4d4,5D0,4d3 4F<3/2>,866,4,,,,,,,,,,,
65,Tb XXVII,Tb,XXVII,26,Terbium,Y,[Kr].4d3,4d3,4F<3/2>,4d2 3F<2>,909,4,,,,,,,,,,,
65,Tb XXVIII,Tb,XXVIII,27,Terbium,Sr,[Kr].4d2,4d2,3F<2>,4d 2D<3/2>,954,4,,,,,,,,,,,
65,Tb XXIX,Tb,XXIX,28,Terbium,Rb,[Kr].4d,4d,2D<3/2>,4p6 1S<0>,997,4,,,,,,,,,,,
65,Tb XXX,Tb,XXX,29,Terbium,Kr,[Ar].3d10.4s2.4p6,4p6,1S0,4p5 2P*<3/2>,1165,4,,,,,,,,,,,
65,Tb XXXI,Tb,XXXI,30,Terbium,Br,[Ar].3d10.4s2.4p5,4p5,2P*<3/2>,4p4 3P<2>,1208,4,,,,,,,,,,,
65,Tb XXXII,Tb,XXXII,31,Terbium,Se,[Ar].3d10.4s2.4p4,4p4,3P<2>,4p3 4S*<3/2>,1256,4,,,,,,,,,,,
65,Tb XXXIII,Tb,XXXIII,32,Terbium,As,[Ar].3d10.4s2.4p3,4p3,4S*<3/2>,4p2 3P<0>,1301,4,,,,,,,,,,,
65,Tb XXXIV,Tb,XXXIV,33,Terbium,Ge,[Ar].3d10.4s2.4p2,4p2,3P0,4p 2P*<1/2>,1393,5,,,,,,,,,,,
65,Tb XXXV,Tb,XXXV,34,Terbium,Ga,[Ar].3d10.4s2.4p,4p,2P*<1/2>,4s2 1S<0>,1443,5,,,,,,,,,,,
65,Tb XXXVI,Tb,XXXVI,35,Terbium,Zn,[Ar].3d10.4s2,4s2,1S0,4s 2S<1/2>,1559,5,,,,,,,,,,,
65,Tb XXXVII,Tb,XXXVII,36,Terbium,Cu,[Ar].3d10.4s,4s,2S<1/2>,3d10 1S<0>,1610.4,0.7,,,,,,,,,,,
65,Tb XXXVIII,Tb,XXXVIII,37,Terbium,Ni,[Ar].3d10,3d10,1S0,3d9 2D<5/2>,2750,4,,,,,,,,,,,
65,Tb XXXIX,Tb,XXXIX,38,Terbium,Co,[Ar].3d9,3d9,2D<5/2>,3d8 3F<4>,2852,4,,,,,,,,,,,
65,Tb XL,Tb,XL,39,Terbium,Fe,[Ar].3d8,3d8,3F<4>,3d7 4F<9/2>,2961,4,,,,,,,,,,,
65,Tb XLI,Tb,XLI,40,Terbium,Mn,[Ar].3d7,3d7,4F<9/2>,"3d-4.3d+2 (0,4)<4>",3078,4,,,,,,,,,,,
65,Tb XLII,Tb,XLII,41,Terbium,Cr,[Ar].3d6,3d-4.3d+2,"(0,4)<4>","3d-4.3d+ (0,5/2)<5/2>",3189,4,,,,,,,,,,,
65,Tb XLIII,Tb,XLIII,42,Terbium,V,[Ar].3d5,3d-4.3d+,"(0,5/2)<5/2>",3d4 5D<0>,3300,4,,,,,,,,,,,
65,Tb XLIV,Tb,XLIV,43,Terbium,Ti,[Ar].3d4,3d4,5D0,3d3 4F<3/2>,3458,4,,,,,,,,,,,
65,Tb XLV,Tb,XLV,44,Terbium,Sc,[Ar].3d3,3d3,4F<3/2>,3d2 3F<2>,3573,4,,,,,,,,,,,
65,Tb XLVI,Tb,XLVI,45,Terbium,Ca,[Ar].3d2,3d2,3F<2>,3d 2D<3/2>,3698,4,,,,,,,,,,,
65,Tb XLVII,Tb,XLVII,46,Terbium,K,[Ar].3d,3d,2D<3/2>,3p6 1S<0>,3814,4,,,,,,,,,,,
65,Tb XLVIII,Tb,XLVIII,47,Terbium,Ar,[Ne].3s2.3p6,3p6,1S0,3p5 2P*<3/2>,4139,4,,,,,,,,,,,
65,Tb XLIX,Tb,XLIX,48,Terbium,Cl,[Ne].3s2.3p5,3p5,2P*<3/2>,3p4 3P<2>,4242,4,,,,,,,,,,,
65,Tb L,Tb,L,49,Terbium,S,[Ne].3s2.3p4,3p4,3P<2>,3p3 2P*<3/2>,4355,4,,,,,,,,,,,
65,Tb LI,Tb,LI,50,Terbium,P,[Ne].3s2.3p3,3p3,2P*<3/2>,3p2 3P<0>,4460,4,,,,,,,,,,,
65,Tb LII,Tb,LII,51,Terbium,Si,[Ne].3s2.3p2,3p2,3P0,3p 2P*<1/2>,4760,4,,,,,,,,,,,
65,Tb LIII,Tb,LIII,52,Terbium,Al,[Ne].3s2.3p,3p,2P*<1/2>,3s2 1S<0>,4877,4,,,,,,,,,,,
65,Tb LIV,Tb,LIV,53,Terbium,Mg,[Ne].3s2,3s2,1S0,3s 2S<1/2>,5103,5,,,,,,,,,,,
65,Tb LV,Tb,LV,54,Terbium,Na,[Ne].3s,3s,2S<1/2>,2p6 1S<0>,5217,5,,,,,,,,,,,
65,Tb LVI,Tb,LVI,55,Terbium,Ne,1s2.2s2.2p6,2p6,1S0,2p5 2P*<3/2>,11673,5,,,,,,,,,,,
65,Tb LVII,Tb,LVII,56,Terbium,F,1s2.2s2.2p5,2p5,2P*<3/2>,2p4 3P<2>,11957,5,,,,,,,,,,,
65,Tb LVIII,Tb,LVIII,57,Terbium,O,1s2.2s2.2p4,2p4,3P<2>,"2p2<1/2>.2p<3/2> (0,3/2)*<3/2>",12272,6,,,,,,,,,,,
65,Tb LIX,Tb,LIX,58,Terbium,N,1s2.2s2.2p3,2p2<1/2>.2p<3/2>,"(0,3/2)*<3/2>",2p2 3P<0>,12563,6,,,,,,,,,,,
65,Tb LX,Tb,LX,59,Terbium,C,1s2.2s2.2p2,2p2,3P0,2p 2P*<1/2>,13658,7,,,,,,,,,,,
65,Tb LXI,Tb,LXI,60,Terbium,B,1s2.2s2.2p,2p,2P*<1/2>,2s2 1S<0>,14003,10,,,,,,,,,,,
65,Tb LXII,Tb,LXII,61,Terbium,Be,1s2.2s2,2s2,1S0,2s 2S<1/2>,14434,12,,,,,,,,,,,
65,Tb LXIII,Tb,LXIII,62,Terbium,Li,1s2.2s,1s2.2s,2S<1/2>,1s2 1S<0>,14721.02,0.1,,,,,,,,,,,
65,Tb LXIV,Tb,LXIV,63,Terbium,He,1s2,1s2,1S0,1s 2S<1/2>,59741.12,0.09,,,,,,,,,,,
65,Tb LXV,Tb,LXV,64,Terbium,H,1s,1s,2S<1/2>,,61050.1,0.6,,,,,,,,,,,
66,Dy I,Dy,I,0,Dysprosium,Dy,[Xe].4f10.6s2,4f10.6s2,5I<8>,"4f10.(5I<8>).6s<1/2> (8,1/2)<17/2>",5.939061,0.000006,,,,,,,,,,,
66,Dy II,Dy,II,1,Dysprosium,Tb,[Xe].4f10.6s,4f10.(5I<8>).6s<1/2>,"(8,1/2)<17/2>",4f10.5p6 5I<8>,11.647,0.02,,,,,,,,,,,
66,Dy III,Dy,III,2,Dysprosium,Gd,[Xe].4f10,4f10.5p6,5I<8>,4f9.5p6 6H*<15/2>,22.89,0.03,,,,,,,,,,,
66,Dy IV,Dy,IV,3,Dysprosium,Eu,[Xe].4f9,4f9,6H*<15/2>,4f8.5p6 7F<6>,41.23,0.08,,,,,,,,,,,
66,Dy V,Dy,V,4,Dysprosium,Sm,[Xe].4f8,4f8.5p6,7F<6>,4f8.5s2.5p5*,62.1,0.3,,,,,,,,,,,
66,Dy VI,Dy,VI,5,Dysprosium,Pm,[Cd].4f8.5p5,4f8.5s2.5p5,*,4f8.5s2.5p4,93,5,,,,,,,,,,,
66,Dy VII,Dy,VII,6,Dysprosium,Nd,[Cd].4f8.5p4,4f8.5s2.5p4,,4f9.5s2.5p2*,110,5,,,,,,,,,,,
66,Dy VIII,Dy,VIII,7,Dysprosium,Pr,[Cd].4f9.5p2,4f9.5s2.5p2,*,4f8.5s2.5p2,127,6,,,,,,,,,,,
66,Dy IX,Dy,IX,8,Dysprosium,Ce,[Cd].4f8.5p2,4f8.5s2.5p2,,4f8.5s2.5p*,152,8,,,,,,,,,,,
66,Dy X,Dy,X,9,Dysprosium,La,[Cd].4f8.5p,4f8.5s2.5p,*,4f8.5s2,170,9,,,,,,,,,,,
66,Dy XI,Dy,XI,10,Dysprosium,Ba,[Cd].4f8,4f8.5s2,,4f7.5s2*,192,10,,,,,,,,,,,
66,Dy XII,Dy,XII,11,Dysprosium,Cs,[Cd].4f7,4f7.5s2,*,4f6.5s2,224,11,,,,,,,,,,,
66,Dy XIII,Dy,XIII,12,Dysprosium,Xe,[Cd].4f6,4f6.5s2,,4f6.5s*,259,12,,,,,,,,,,,
66,Dy XIV,Dy,XIV,13,Dysprosium,I,[Kr].4d10.4f6.5s,4f6.5s,,4f4.5s2,279,14,,,,,,,,,,,
66,Dy XV,Dy,XV,14,Dysprosium,Te,[Cd].4f4,4f4.5s2,,4f5 6H*<5/2>,300,15,,,,,,,,,,,
66,Dy XVI,Dy,XVI,15,Dysprosium,Sb,[Kr].4d10.4f5,4f5,6H*<5/2>,4f4 5I<4>,332,16,,,,,,,,,,,
66,Dy XVII,Dy,XVII,16,Dysprosium,Sn,[Kr].4d10.4f4,4f4,5I<4>,4f3 4I*<9/2>,366,19,,,,,,,,,,,
66,Dy XVIII,Dy,XVIII,17,Dysprosium,In,[Kr].4d10.4f3,4f3,4I*<9/2>,4f2 3H<4>,399,20,,,,,,,,,,,
66,Dy XIX,Dy,XIX,18,Dysprosium,Cd,[Kr].4d10.4f2,4f2,3H<4>,4f 2F*<5/2>,431,21,,,,,,,,,,,
66,Dy XX,Dy,XX,19,Dysprosium,Ag,[Kr].4d10.4f,4f,2F*<5/2>,4d10 1S<0>,464.9,2.5,,,,,,,,,,,
66,Dy XXI,Dy,XXI,20,Dysprosium,Pd,[Kr].4d10,4d10,1S0,4d9 2D<5/2>,664,4,,,,,,,,,,,
66,Dy XXII,Dy,XXII,21,Dysprosium,Rh,[Kr].4d9,4d9,2D<5/2>,4d8 3F<4>,702,4,,,,,,,,,,,
66,Dy XXIII,Dy,XXIII,22,Dysprosium,Ru,[Kr].4d8,4d8,3F<4>,4d7 4F<9/2>,743,4,,,,,,,,,,,
66,Dy XXIV,Dy,XXIV,23,Dysprosium,Tc,[Kr].4d7,4d7,4F<9/2>,4d6 5D<4>,786,4,,,,,,,,,,,
66,Dy XXV,Dy,XXV,24,Dysprosium,Mo,[Kr].4d6,4d6,5D<4>,4d5 6S<5/2>,827,4,,,,,,,,,,,
66,Dy XXVI,Dy,XXVI,25,Dysprosium,Nb,[Kr].4d5,4d5,6S<5/2>,4d4 5D<0>,872,4,,,,,,,,,,,
66,Dy XXVII,Dy,XXVII,26,Dysprosium,Zr,[Kr].4d4,4d4,5D0,4d3 4F<3/2>,924,4,,,,,,,,,,,
66,Dy XXVIII,Dy,XXVIII,27,Dysprosium,Y,[Kr].4d3,4d3,4F<3/2>,4d2 3F<2>,969,4,,,,,,,,,,,
66,Dy XXIX,Dy,XXIX,28,Dysprosium,Sr,[Kr].4d2,4d2,3F<2>,4d 2D<3/2>,1014,4,,,,,,,,,,,
66,Dy XXX,Dy,XXX,29,Dysprosium,Rb,[Kr].4d,4d,2D<3/2>,4p6 1S<0>,1059,4,,,,,,,,,,,
66,Dy XXXI,Dy,XXXI,30,Dysprosium,Kr,[Ar].3d10.4s2.4p6,4p6,1S0,4p5 2P*<3/2>,1232,4,,,,,,,,,,,
66,Dy XXXII,Dy,XXXII,31,Dysprosium,Br,[Ar].3d10.4s2.4p5,4p5,2P*<3/2>,4p4 3P<2>,1275,4,,,,,,,,,,,
66,Dy XXXIII,Dy,XXXIII,32,Dysprosium,Se,[Ar].3d10.4s2.4p4,4p4,3P<2>,4p3 4S*<3/2>,1325,4,,,,,,,,,,,
66,Dy XXXIV,Dy,XXXIV,33,Dysprosium,As,[Ar].3d10.4s2.4p3,4p3,4S*<3/2>,4p2 3P<0>,1371,5,,,,,,,,,,,
66,Dy XXXV,Dy,XXXV,34,Dysprosium,Ge,[Ar].3d10.4s2.4p2,4p2,3P0,4p 2P*<1/2>,1468,5,,,,,,,,,,,
66,Dy XXXVI,Dy,XXXVI,35,Dysprosium,Ga,[Ar].3d10.4s2.4p,4p,2P*<1/2>,4s2 1S<0>,1520,5,,,,,,,,,,,
66,Dy XXXVII,Dy,XXXVII,36,Dysprosium,Zn,[Ar].3d10.4s2,4s2,1S0,4s 2S<1/2>,1638,5,,,,,,,,,,,
66,Dy XXXVIII,Dy,XXXVIII,37,Dysprosium,Cu,[Ar].3d10.4s,4s,2S<1/2>,3d10 1S<0>,1691.7,0.3,,,,,,,,,,,
66,Dy XXXIX,Dy,XXXIX,38,Dysprosium,Ni,[Ar].3d10,3d10,1S0,3d9 2D<5/2>,2882,4,,,,,,,,,,,
66,Dy XL,Dy,XL,39,Dysprosium,Co,[Ar].3d9,3d9,2D<5/2>,3d8 3F<4>,2987,4,,,,,,,,,,,
66,Dy XLI,Dy,XLI,40,Dysprosium,Fe,[Ar].3d8,3d8,3F<4>,3d7 4F<9/2>,3098,4,,,,,,,,,,,
66,Dy XLII,Dy,XLII,41,Dysprosium,Mn,[Ar].3d7,3d7,4F<9/2>,"3d-4.3d+2 (0,4)<4>",3217,4,,,,,,,,,,,
66,Dy XLIII,Dy,XLIII,42,Dysprosium,Cr,[Ar].3d6,3d-4.3d+2,"(0,4)<4>","3d-4.3d+ (0,5/2)<5/2>",3331,4,,,,,,,,,,,
66,Dy XLIV,Dy,XLIV,43,Dysprosium,V,[Ar].3d5,3d-4.3d+,"(0,5/2)<5/2>",3d4 5D<0>,3445,4,,,,,,,,,,,
66,Dy XLV,Dy,XLV,44,Dysprosium,Ti,[Ar].3d4,3d4,5D0,3d3 4F<3/2>,3607,4,,,,,,,,,,,
66,Dy XLVI,Dy,XLVI,45,Dysprosium,Sc,[Ar].3d3,3d3,4F<3/2>,3d2 3F<2>,3725,4,,,,,,,,,,,
66,Dy XLVII,Dy,XLVII,46,Dysprosium,Ca,[Ar].3d2,3d2,3F<2>,3d 2D<3/2>,3852,4,,,,,,,,,,,
66,Dy XLVIII,Dy,XLVIII,47,Dysprosium,K,[Ar].3d,3d,2D<3/2>,3p6 1S<0>,3970,4,,,,,,,,,,,
66,Dy XLIX,Dy,XLIX,48,Dysprosium,Ar,[Ne].3s2.3p6,3p6,1S0,3p5 2P*<3/2>,4303,4,,,,,,,,,,,
66,Dy L,Dy,L,49,Dysprosium,Cl,[Ne].3s2.3p5,3p5,2P*<3/2>,3p4 3P<2>,4407,4,,,,,,,,,,,
66,Dy LI,Dy,LI,50,Dysprosium,S,[Ne].3s2.3p4,3p4,3P<2>,3p3 2P*<3/2>,4523,4,,,,,,,,,,,
66,Dy LII,Dy,LII,51,Dysprosium,P,[Ne].3s2.3p3,3p3,2P*<3/2>,3p2 3P<0>,4629,4,,,,,,,,,,,
66,Dy LIII,Dy,LIII,52,Dysprosium,Si,[Ne].3s2.3p2,3p2,3P0,3p 2P*<1/2>,4945,4,,,,,,,,,,,
66,Dy LIV,Dy,LIV,53,Dysprosium,Al,[Ne].3s2.3p,3p,2P*<1/2>,3s2 1S<0>,5066,5,,,,,,,,,,,
66,Dy LV,Dy,LV,54,Dysprosium,Mg,[Ne].3s2,3s2,1S0,3s 2S<1/2>,5296,5,,,,,,,,,,,
66,Dy LVI,Dy,LVI,55,Dysprosium,Na,[Ne].3s,3s,2S<1/2>,2p6 1S<0>,5412,5,,,,,,,,,,,
66,Dy LVII,Dy,LVII,56,Dysprosium,Ne,1s2.2s2.2p6,2p6,1S0,2p5 2P*<3/2>,12081,5,,,,,,,,,,,
66,Dy LVIII,Dy,LVIII,57,Dysprosium,F,1s2.2s2.2p5,2p5,2P*<3/2>,2p4 3P<2>,12370,6,,,,,,,,,,,
66,Dy LIX,Dy,LIX,58,Dysprosium,O,1s2.2s2.2p4,2p4,3P<2>,"2p2<1/2>.2p<3/2> (0,3/2)*<3/2>",12690,6,,,,,,,,,,,
66,Dy LX,Dy,LX,59,Dysprosium,N,1s2.2s2.2p3,2p2<1/2>.2p<3/2>,"(0,3/2)*<3/2>",2p2 3P<0>,12986,7,,,,,,,,,,,
66,Dy LXI,Dy,LXI,60,Dysprosium,C,1s2.2s2.2p2,2p2,3P0,2p 2P*<1/2>,14144,10,,,,,,,,,,,
66,Dy LXII,Dy,LXII,61,Dysprosium,B,1s2.2s2.2p,2p,2P*<1/2>,2s2 1S<0>,14495,12,,,,,,,,,,,
66,Dy LXIII,Dy,LXIII,62,Dysprosium,Be,1s2.2s2,2s2,1S0,2s 2S<1/2>,14936,15,,,,,,,,,,,
66,Dy LXIV,Dy,LXIV,63,Dysprosium,Li,1s2.2s,1s2.2s,2S<1/2>,1s2 1S<0>,15228.06,0.11,,,,,,,,,,,
66,Dy LXV,Dy,LXV,64,Dysprosium,He,1s2,1s2,1S0,1s 2S<1/2>,61736.62,0.1,,,,,,,,,,,
66,Dy LXVI,Dy,LXVI,65,Dysprosium,H,1s,1s,2S<1/2>,,63073.23,0.1,,,,,,,,,,,
67,Ho I,Ho,I,0,Holmium,Ho,[Xe].4f11.6s2,4f11.6s2,4I*<15/2>,"4f11.(4I*).5p6.6s (15/2,1/2)*<8>",6.0215,0.0006,,,,,,,,,,,
67,Ho II,Ho,II,1,Holmium,Dy,[Xe].4f11.6s,4f11.(4I*<15/2>).6s<1/2>,"(15/2,1/2)*<8>",4f11 4I*<15/2>,11.781,0.02,,,,,,,,,,,
67,Ho III,Ho,III,2,Holmium,Tb,[Xe].4f11,4f11,4I*<15/2>,4f10.5p6 5I<8>,22.79,0.03,,,,,,,,,,,
67,Ho IV,Ho,IV,3,Holmium,Gd,[Xe].4f10,4f10,5I<8>,4f9.5p6 6H*<15/2>,42.52,0.08,,,,,,,,,,,
67,Ho V,Ho,V,4,Holmium,Eu,[Xe].4f9,4f9.5p6,6H*<15/2>,4f9.5p5,63.9,0.3,,,,,,,,,,,
67,Ho VI,Ho,VI,5,Holmium,Sm,[Cd].4f9.5p5,4f9.5p5,,4f9.5s2.5p4*,95,5,,,,,,,,,,,
67,Ho VII,Ho,VII,6,Holmium,Pm,[Cd].4f9.5p4,4f9.5s2.5p4,*,4f9.5s2.5p3,112,6,,,,,,,,,,,
67,Ho VIII,Ho,VIII,7,Holmium,Nd,[Cd].4f9.5p3,4f9.5s2.5p3,,4f10.5s2.5p*,129,6,,,,,,,,,,,
67,Ho IX,Ho,IX,8,Holmium,Pr,[Cd].4f10.5p,4f10.5s2.5p,*,4f9.5s2.5p,155,8,,,,,,,,,,,
67,Ho X,Ho,X,9,Holmium,Ce,[Cd].4f9.5p,4f9.5s2.5p,,4f9.5s2*,173,9,,,,,,,,,,,
67,Ho XI,Ho,XI,10,Holmium,La,[Cd].4f9,4f9.5s2,*,4f8.5s2,197,10,,,,,,,,,,,
67,Ho XII,Ho,XII,11,Holmium,Ba,[Cd].4f8,4f8.5s2,,4f7.5s2*,229,12,,,,,,,,,,,
67,Ho XIII,Ho,XIII,12,Holmium,Cs,[Cd].4f7,4f7.5s2,*,4f6.5s2,263,14,,,,,,,,,,,
67,Ho XIV,Ho,XIV,13,Holmium,Xe,[Cd].4f6,4f6.5s2,,4f6.5s*,284,14,,,,,,,,,,,
67,Ho XV,Ho,XV,14,Holmium,I,[Kr].4d10.4f6.5s,4f6.5s,,4f4.5s2,305,15,,,,,,,,,,,
67,Ho XVI,Ho,XVI,15,Holmium,Te,[Cd].4f4,4f4.5s2,,4f5 6H*<5/2>,340,17,,,,,,,,,,,
67,Ho XVII,Ho,XVII,16,Holmium,Sb,[Kr].4d10.4f5,4f5,6H*<5/2>,4f4 5I<4>,373,19,,,,,,,,,,,
67,Ho XVIII,Ho,XVIII,17,Holmium,Sn,[Kr].4d10.4f4,4f4,5I<4>,4f3 4I*<9/2>,408,20,,,,,,,,,,,
67,Ho XIX,Ho,XIX,18,Holmium,In,[Kr].4d10.4f3,4f3,4I*<9/2>,4f2 3H<4>,441,22,,,,,,,,,,,
67,Ho XX,Ho,XX,19,Holmium,Cd,[Kr].4d10.4f2,4f2,3H<4>,4f 2F*<5/2>,475,24,,,,,,,,,,,
67,Ho XXI,Ho,XXI,20,Holmium,Ag,[Kr].4d10.4f,4f,2F*<5/2>,4d10 1S<0>,510,4,,,,,,,,,,,
67,Ho XXII,Ho,XXII,21,Holmium,Pd,[Kr].4d10,4d10,1S0,4d9 2D<5/2>,715,4,,,,,,,,,,,
67,Ho XXIII,Ho,XXIII,22,Holmium,Rh,[Kr].4d9,4d9,2D<5/2>,4d8 3F<4>,755,4,,,,,,,,,,,
67,Ho XXIV,Ho,XXIV,23,Holmium,Ru,[Kr].4d8,4d8,3F<4>,4d7 4F<9/2>,797,4,,,,,,,,,,,
67,Ho XXV,Ho,XXV,24,Holmium,Tc,[Kr].4d7,4d7,4F<9/2>,4d6 5D<4>,842,4,,,,,,,,,,,
67,Ho XXVI,Ho,XXVI,25,Holmium,Mo,[Kr].4d6,4d6,5D<4>,4d5 6S<5/2>,885,4,,,,,,,,,,,
67,Ho XXVII,Ho,XXVII,26,Holmium,Nb,[Kr].4d5,4d5,6S<5/2>,4d4 5D<0>,929,4,,,,,,,,,,,
67,Ho XXVIII,Ho,XXVIII,27,Holmium,Zr,[Kr].4d4,4d4,5D0,4d3 4F<3/2>,985,4,,,,,,,,,,,
67,Ho XXIX,Ho,XXIX,28,Holmium,Y,[Kr].4d3,4d3,4F<3/2>,4d2 3F<2>,1029,4,,,,,,,,,,,
67,Ho XXX,Ho,XXX,29,Holmium,Sr,[Kr].4d2,4d2,3F<2>,4d 2D<3/2>,1077,4,,,,,,,,,,,
67,Ho XXXI,Ho,XXXI,30,Holmium,Rb,[Kr].4d,4d,2D<3/2>,4p6 1S<0>,1122,4,,,,,,,,,,,
67,Ho XXXII,Ho,XXXII,31,Holmium,Kr,[Ar].3d10.4s2.4p6,4p6,1S0,4p5 2P*<3/2>,1300,4,,,,,,,,,,,
67,Ho XXXIII,Ho,XXXIII,32,Holmium,Br,[Ar].3d10.4s2.4p5,4p5,2P*<3/2>,4p4 3P<2>,1346,4,,,,,,,,,,,
67,Ho XXXIV,Ho,XXXIV,33,Holmium,Se,[Ar].3d10.4s2.4p4,4p4,3P<2>,4p3 4S*<3/2>,1395,5,,,,,,,,,,,
67,Ho XXXV,Ho,XXXV,34,Holmium,As,[Ar].3d10.4s2.4p3,4p3,4S*<3/2>,4p2 3P<0>,1443,5,,,,,,,,,,,
67,Ho XXXVI,Ho,XXXVI,35,Holmium,Ge,[Ar].3d10.4s2.4p2,4p2,3P0,4p 2P*<1/2>,1545,5,,,,,,,,,,,
67,Ho XXXVII,Ho,XXXVII,36,Holmium,Ga,[Ar].3d10.4s2.4p,4p,2P*<1/2>,4s2 1S<0>,1598,5,,,,,,,,,,,
67,Ho XXXVIII,Ho,XXXVIII,37,Holmium,Zn,[Ar].3d10.4s2,4s2,1S0,4s 2S<1/2>,1719,4,,,,,,,,,,,
67,Ho XXXIX,Ho,XXXIX,38,Holmium,Cu,[Ar].3d10.4s,4s,2S<1/2>,3d10 1S<0>,1773.6,0.9,,,,,,,,,,,
67,Ho XL,Ho,XL,39,Holmium,Ni,[Ar].3d10,3d10,1S0,3d9 2D<5/2>,3018,4,,,,,,,,,,,
67,Ho XLI,Ho,XLI,40,Holmium,Co,[Ar].3d9,3d9,2D<5/2>,3d8 3F<4>,3125,4,,,,,,,,,,,
67,Ho XLII,Ho,XLII,41,Holmium,Fe,[Ar].3d8,3d8,3F<4>,3d7 4F<9/2>,3238,4,,,,,,,,,,,
67,Ho XLIII,Ho,XLIII,42,Holmium,Mn,[Ar].3d7,3d7,4F<9/2>,"3d-4.3d+2 (0,4)<4>",3359,4,,,,,,,,,,,
67,Ho XLIV,Ho,XLIV,43,Holmium,Cr,[Ar].3d6,3d-4.3d+2,"(0,4)<4>","3d-4.3d+ (0,5/2)<5/2>",3476,4,,,,,,,,,,,
67,Ho XLV,Ho,XLV,44,Holmium,V,[Ar].3d5,3d-4.3d+,"(0,5/2)<5/2>",3d4 5D<0>,3592,4,,,,,,,,,,,
67,Ho XLVI,Ho,XLVI,45,Holmium,Ti,[Ar].3d4,3d4,5D0,3d3 4F<3/2>,3760,4,,,,,,,,,,,
67,Ho XLVII,Ho,XLVII,46,Holmium,Sc,[Ar].3d3,3d3,4F<3/2>,3d2 3F<2>,3880,4,,,,,,,,,,,
67,Ho XLVIII,Ho,XLVIII,47,Holmium,Ca,[Ar].3d2,3d2,3F<2>,3d 2D<3/2>,4009,4,,,,,,,,,,,
67,Ho XLIX,Ho,XLIX,48,Holmium,K,[Ar].3d,3d,2D<3/2>,3p6 1S<0>,4131,4,,,,,,,,,,,
67,Ho L,Ho,L,49,Holmium,Ar,[Ne].3s2.3p6,3p6,1S0,3p5 2P*<3/2>,4469,4,,,,,,,,,,,
67,Ho LI,Ho,LI,50,Holmium,Cl,[Ne].3s2.3p5,3p5,2P*<3/2>,3p4 3P<2>,4576,4,,,,,,,,,,,
67,Ho LII,Ho,LII,51,Holmium,S,[Ne].3s2.3p4,3p4,3P<2>,3p3 2P*<3/2>,4693,4,,,,,,,,,,,
67,Ho LIII,Ho,LIII,52,Holmium,P,[Ne].3s2.3p3,3p3,2P*<3/2>,3p2 3P<0>,4802,4,,,,,,,,,,,
67,Ho LIV,Ho,LIV,53,Holmium,Si,[Ne].3s2.3p2,3p2,3P0,3p 2P*<1/2>,5135,5,,,,,,,,,,,
67,Ho LV,Ho,LV,54,Holmium,Al,[Ne].3s2.3p,3p,2P*<1/2>,3s2 1S<0>,5258,5,,,,,,,,,,,
67,Ho LVI,Ho,LVI,55,Holmium,Mg,[Ne].3s2,3s2,1S0,3s 2S<1/2>,5494,5,,,,,,,,,,,
67,Ho LVII,Ho,LVII,56,Holmium,Na,[Ne].3s,3s,2S<1/2>,2p6 1S<0>,5611,5,,,,,,,,,,,
67,Ho LVIII,Ho,LVIII,57,Holmium,Ne,1s2.2s2.2p6,2p6,1S0,2p5 2P*<3/2>,12495,6,,,,,,,,,,,
67,Ho LIX,Ho,LIX,58,Holmium,F,1s2.2s2.2p5,2p5,2P*<3/2>,2p4 3P<2>,12790,6,,,,,,,,,,,
67,Ho LX,Ho,LX,59,Holmium,O,1s2.2s2.2p4,2p4,3P<2>,"2p2<1/2>.2p<3/2> (0,3/2)*<3/2>",13116,7,,,,,,,,,,,
67,Ho LXI,Ho,LXI,60,Holmium,N,1s2.2s2.2p3,2p2<1/2>.2p<3/2>,"(0,3/2)*<3/2>",2p2 3P<0>,13417,10,,,,,,,,,,,
67,Ho LXII,Ho,LXII,61,Holmium,C,1s2.2s2.2p2,2p2,3P0,2p 2P*<1/2>,14639,12,,,,,,,,,,,
67,Ho LXIII,Ho,LXIII,62,Holmium,B,1s2.2s2.2p,2p,2P*<1/2>,2s2 1S<0>,14998,15,,,,,,,,,,,
67,Ho LXIV,Ho,LXIV,63,Holmium,Be,1s2.2s2,2s2,1S0,2s 2S<1/2>,15448,19,,,,,,,,,,,
67,Ho LXV,Ho,LXV,64,Holmium,Li,1s2.2s,1s2.2s,2S<1/2>,1s2 1S<0>,15745.77,0.11,,,,,,,,,,,
67,Ho LXVI,Ho,LXVI,65,Holmium,He,1s2,1s2,1S0,1s 2S<1/2>,63772.42,0.11,,,,,,,,,,,
67,Ho LXVII,Ho,LXVII,66,Holmium,H,1s,1s,2S<1/2>,,65137.13,0.16,,,,,,,,,,,
68,Er I,Er,I,0,Erbium,Er,[Xe].4f12.6s2,4f12.6s2,3H<6>,"4f12.(3H).5p6.6s (6,1/2)<13/2>",6.1077,0.001,,,,,,,,,,,
68,Er II,Er,II,1,Erbium,Ho,[Xe].4f12.6s,4f12.(3H<6>).6s<1/2>,"(6,1/2)<13/2>",4f12.5p6 3H<6>,11.916,0.02,,,,,,,,,,,
68,Er III,Er,III,2,Erbium,Dy,[Xe].4f12,4f12,3H<6>,4f11 4I*<15/2>,22.7,0.03,,,,,,,,,,,
68,Er IV,Er,IV,3,Erbium,Tb,[Xe].4f11,4f11,4I*<15/2>,4f10.5p6 5I<8>,42.42,0.04,,,,,,,,,,,
68,Er V,Er,V,4,Erbium,Gd,[Xe].4f10,4f10.5p6,5I<8>,4f10.5p5*,65.1,0.4,,,,,,,,,,,
68,Er VI,Er,VI,5,Erbium,Eu,[Cd].4f10.5p5,4f10.5p5,*,4f10.5p4,96,5,,,,,,,,,,,
68,Er VII,Er,VII,6,Erbium,Sm,[Cd].4f10.5p4,4f10.5p4,,4f10.5s2.5p3*,114,6,,,,,,,,,,,
68,Er VIII,Er,VIII,7,Erbium,Pm,[Cd].4f10.5p3,4f10.5s2.5p3,*,4f10.5s2.5p2,131,7,,,,,,,,,,,