At. num,Sp. Name,Element,Valence,Ion Charge,El. Name,Isoel. Seq.,Ground Shells (a),Ground Config.,Ground Level,Ionized Level,Ionization Energy (b) (eV),Uncertainty (c) (eV),,,,,,,,,,,
71,Lu XXXI,Lu,XXXI,30,Lutetium,Nb,[Kr].4d5,4d5,6S<5/2>,4d4 5D<0>,1178,4,,,,,,,,,,,
71,Lu XXXII,Lu,XXXII,31,Lutetium,Zr,[Kr].4d4,4d4,5D0,4d3 4F<3/2>,1242,4,,,,,,,,,,,
71,Lu XXXIII,Lu,XXXIII,32,Lutetium,Y,[Kr].4d3,4d3,4F<3/2>,4d2 3F<2>,1292,4,,,,,,,,,,,
71,Lu XXXIV,Lu,XXXIV,33,Lutetium,Sr,[Kr].4d2,4d2,3F<2>,4d 2D<3/2>,1345,5,,,,,,,,,,,
71,Lu XXXV,Lu,XXXV,34,Lutetium,Rb,[Kr].4d,4d,2D<3/2>,4p6 1S<0>,1395,5,,,,,,,,,,,
71,Lu XXXVI,Lu,XXXVI,35,Lutetium,Kr,[Ar].3d10.4s2.4p6,4p6,1S0,4p5 2P*<3/2>,1591,5,,,,,,,,,,,
71,Lu XXXVII,Lu,XXXVII,36,Lutetium,Br,[Ar].3d10.4s2.4p5,4p5,2P*<3/2>,4p4 3P<2>,1641,5,,,,,,,,,,,
71,Lu XXXVIII,Lu,XXXVIII,37,Lutetium,Se,[Ar].3d10.4s2.4p4,4p4,3P<2>,4p3 4S*<3/2>,1696,4,,,,,,,,,,,
71,Lu XXXIX,Lu,XXXIX,38,Lutetium,As,[Ar].3d10.4s2.4p3,4p3,4S*<3/2>,4p2 3P<0>,1747,4,,,,,,,,,,,
71,Lu XL,Lu,XL,39,Lutetium,Ge,[Ar].3d10.4s2.4p2,4p2,3P0,4p 2P*<1/2>,1875,4,,,,,,,,,,,
71,Lu XLI,Lu,XLI,40,Lutetium,Ga,[Ar].3d10.4s2.4p,4p,2P*<1/2>,4s2 1S<0>,1933,4,,,,,,,,,,,
71,Lu XLII,Lu,XLII,41,Lutetium,Zn,[Ar].3d10.4s2,4s2,1S0,4s 2S<1/2>,2067,4,,,,,,,,,,,
71,Lu XLIII,Lu,XLIII,42,Lutetium,Cu,[Ar].3d10.4s,4s,2S<1/2>,3d10 1S<0>,2125.5,1.1,,,,,,,,,,,
71,Lu XLIV,Lu,XLIV,43,Lutetium,Ni,[Ar].3d10,3d10,1S0,3d9 2D<5/2>,3590,4,,,,,,,,,,,
71,Lu XLV,Lu,XLV,44,Lutetium,Co,[Ar].3d9,3d9,2D<5/2>,3d8 3F<4>,3706,4,,,,,,,,,,,
71,Lu XLVI,Lu,XLVI,45,Lutetium,Fe,[Ar].3d8,3d8,3F<4>,3d7 4F<9/2>,3828,4,,,,,,,,,,,
71,Lu XLVII,Lu,XLVII,46,Lutetium,Mn,[Ar].3d7,3d7,4F<9/2>,"3d-4.3d+2 (0,4)<4>",3960,4,,,,,,,,,,,
71,Lu XLVIII,Lu,XLVIII,47,Lutetium,Cr,[Ar].3d6,3d-4.3d+2,"(0,4)<4>","3d-4.3d+ (0,5/2)<5/2>",4086,4,,,,,,,,,,,
71,Lu XLIX,Lu,XLIX,48,Lutetium,V,[Ar].3d5,3d-4.3d+,"(0,5/2)<5/2>",3d4 5D<0>,4211,4,,,,,,,,,,,
71,Lu L,Lu,L,49,Lutetium,Ti,[Ar].3d4,3d4,5D0,3d3 4F<3/2>,4403,4,,,,,,,,,,,
71,Lu LI,Lu,LI,50,Lutetium,Sc,[Ar].3d3,3d3,4F<3/2>,3d2 3F<2>,4532,4,,,,,,,,,,,
71,Lu LII,Lu,LII,51,Lutetium,Ca,[Ar].3d2,3d2,3F<2>,3d 2D<3/2>,4673,4,,,,,,,,,,,
71,Lu LIII,Lu,LIII,52,Lutetium,K,[Ar].3d,3d,2D<3/2>,3p6 1S<0>,4803,4,,,,,,,,,,,
71,Lu LIV,Lu,LIV,53,Lutetium,Ar,[Ne].3s2.3p6,3p6,1S0,3p5 2P*<3/2>,5168,5,,,,,,,,,,,
71,Lu LV,Lu,LV,54,Lutetium,Cl,[Ne].3s2.3p5,3p5,2P*<3/2>,3p4 3P<2>,5282,5,,,,,,,,,,,
71,Lu LVI,Lu,LVI,55,Lutetium,S,[Ne].3s2.3p4,3p4,3P<2>,3p3 2P*<3/2>,5408,5,,,,,,,,,,,
71,Lu LVII,Lu,LVII,56,Lutetium,P,[Ne].3s2.3p3,3p3,2P*<3/2>,3p2 3P<0>,5525,5,,,,,,,,,,,
71,Lu LVIII,Lu,LVIII,57,Lutetium,Si,[Ne].3s2.3p2,3p2,3P0,3p 2P*<1/2>,5937,6,,,,,,,,,,,
71,Lu LIX,Lu,LIX,58,Lutetium,Al,[Ne].3s2.3p,3p,2P*<1/2>,3s2 1S<0>,6070,6,,,,,,,,,,,
71,Lu LX,Lu,LX,59,Lutetium,Mg,[Ne].3s2,3s2,1S0,3s 2S<1/2>,6326,7,,,,,,,,,,,
71,Lu LXI,Lu,LXI,60,Lutetium,Na,[Ne].3s,3s,2S<1/2>,2p6 1S<0>,6452,10,,,,,,,,,,,
71,Lu LXII,Lu,LXII,61,Lutetium,Ne,1s2.2s2.2p6,2p6,1S0,2p5 2P*<3/2>,14228,12,,,,,,,,,,,
71,Lu LXIII,Lu,LXIII,62,Lutetium,F,1s2.2s2.2p5,2p5,2P*<3/2>,2p4 3P<2>,14542,15,,,,,,,,,,,
71,Lu LXIV,Lu,LXIV,63,Lutetium,O,1s2.2s2.2p4,2p4,3P<2>,"2p2<1/2>.2p<3/2> (0,3/2)*<3/2>",14890,19,,,,,,,,,,,
71,Lu LXV,Lu,LXV,64,Lutetium,N,1s2.2s2.2p3,2p2<1/2>.2p<3/2>,"(0,3/2)*<3/2>",2p2 3P<0>,15211,24,,,,,,,,,,,
71,Lu LXVI,Lu,LXVI,65,Lutetium,C,1s2.2s2.2p2,2p2,3P0,2p 2P*<1/2>,16730,30,,,,,,,,,,,
71,Lu LXVII,Lu,LXVII,66,Lutetium,B,1s2.2s2.2p,2p,2P*<1/2>,2s2 1S<0>,17120,40,,,,,,,,,,,
71,Lu LXVIII,Lu,LXVIII,67,Lutetium,Be,1s2.2s2,2s2,1S0,2s 2S<1/2>,17610,40,,,,,,,,,,,
71,Lu LXIX,Lu,LXIX,68,Lutetium,Li,1s2.2s,1s2.2s,2S<1/2>,1s2 1S<0>,17928.05,0.16,,,,,,,,,,,
71,Lu LXX,Lu,LXX,69,Lutetium,He,1s2,1s2,1S0,1s 2S<1/2>,72322.87,0.15,,,,,,,,,,,
71,Lu LXXI,Lu,LXXI,70,Lutetium,H,1s,1s,2S<1/2>,,73804.35,0.24,,,,,,,,,,,
72,Hf I,Hf,I,0,Hafnium,Hf,[Xe].4f14.5d2.6s2,5d2.6s2,3F<2>,5d.6s2 2D<3/2>,6.82507,0.000012,,,,,,,,,,,
72,Hf II,Hf,II,1,Hafnium,Lu,[Xe].4f14.5d.6s2,5d.6s2,2D<3/2>,5d2 3F<2>,14.61,0.04,,,,,,,,,,,
72,Hf III,Hf,III,2,Hafnium,Yb,[Xe].4f14.5d2,5d2,3F<2>,5d 2D<3/2>,22.55,0.04,,,,,,,,,,,
72,Hf IV,Hf,IV,3,Hafnium,Tm,[Xe].4f14.5d,5d,2D<3/2>,4f14 1S<0>,33.37,0.025,,,,,,,,,,,
72,Hf V,Hf,V,4,Hafnium,Er,[Xe].4f14,4f14,1S0,4f13.5p6 2F*<7/2>,68.37,0.04,,,,,,,,,,,
72,Hf VI,Hf,VI,5,Hafnium,Ho,[Xe].4f13,4f13.5p6,2F*<7/2>,4f13.5p5,98,5,,,,,,,,,,,
72,Hf VII,Hf,VII,6,Hafnium,Dy,[Cd].4f13.5p5,4f13.5p5,,4f13.5p4*,118,6,,,,,,,,,,,
72,Hf VIII,Hf,VIII,7,Hafnium,Tb,[Cd].4f13.5p4,4f13.5p4,*,4f13.5p3,137,7,,,,,,,,,,,
72,Hf IX,Hf,IX,8,Hafnium,Gd,[Cd].4f13.5p3,4f13.5p3,,4f13.5p2 4F*<7/2>,157,8,,,,,,,,,,,
72,Hf X,Hf,X,9,Hafnium,Eu,[Cd].4f13.5p2,4f13.5p2,4F*<7/2>,4f12.5p2,187,9,,,,,,,,,,,
72,Hf XI,Hf,XI,10,Hafnium,Sm,[Cd].4f12.5p2,4f12.5p2,,4f12.5s2.5p*,209,10,,,,,,,,,,,
72,Hf XII,Hf,XII,11,Hafnium,Pm,[Cd].4f12.5p,4f12.5s2.5p,*,4f12.5s2 3H<6>,230,12,,,,,,,,,,,
72,Hf XIII,Hf,XIII,12,Hafnium,Nd,[Cd].4f12,4f12.5s2,3H<6>,4f11.5s2 4I*<15/2>,270,14,,,,,,,,,,,
72,Hf XIV,Hf,XIV,13,Hafnium,Pr,[Cd].4f11,4f11.5s2,4I*<15/2>,4f11.5s 5I*<4>,310,15,,,,,,,,,,,
72,Hf XV,Hf,XV,14,Hafnium,Ce,[Kr].4d10.4f11.5s,4f11.5s,5I*<8>,4f11*,334,16,,,,,,,,,,,
72,Hf XVI,Hf,XVI,15,Hafnium,La,[Kr].4d10.4f11,4f11,*,4f10,359,17,,,,,,,,,,,
72,Hf XVII,Hf,XVII,16,Hafnium,Ba,[Kr].4d10.4f10,4f10,,4f9 6H*<15/2>,399,20,,,,,,,,,,,
72,Hf XVIII,Hf,XVIII,17,Hafnium,Cs,[Kr].4d10.4f9,4f9,6H*<15/2>,4f8 7F<6>,440,22,,,,,,,,,,,
72,Hf XIX,Hf,XIX,18,Hafnium,Xe,[Kr].4d10.4f8,4f8,7F<6>,4f7 8S*<7/2>,481,24,,,,,,,,,,,
72,Hf XX,Hf,XX,19,Hafnium,I,[Kr].4d10.4f7,4f7,8S*<7/2>,4f6 7F<0>,520,30,,,,,,,,,,,
72,Hf XXI,Hf,XXI,20,Hafnium,Te,[Kr].4d10.4f6,4f6,7F0,4f5 6H*<5/2>,570,30,,,,,,,,,,,
72,Hf XXII,Hf,XXII,21,Hafnium,Sb,[Kr].4d10.4f5,4f5,6H*<5/2>,4f4 5I<4>,610,30,,,,,,,,,,,
72,Hf XXIII,Hf,XXIII,22,Hafnium,Sn,[Kr].4d10.4f4,4f4,5I<4>,4f3 4I*<9/2>,650,30,,,,,,,,,,,
72,Hf XXIV,Hf,XXIV,23,Hafnium,In,[Kr].4d10.4f3,4f3,4I*<9/2>,4f2 3H<4>,690,30,,,,,,,,,,,
72,Hf XXV,Hf,XXV,24,Hafnium,Cd,[Kr].4d10.4f2,4f2,3H<4>,4f 2F*<5/2>,730,40,,,,,,,,,,,
72,Hf XXVI,Hf,XXVI,25,Hafnium,Ag,[Kr].4d10.4f,4f,2F*<5/2>,4d10 1S<0>,772,9,,,,,,,,,,,
72,Hf XXVII,Hf,XXVII,26,Hafnium,Pd,[Kr].4d10,4d10,1S0,4d9 2D<5/2>,1002,4,,,,,,,,,,,
72,Hf XXVIII,Hf,XXVIII,27,Hafnium,Rh,[Kr].4d9,4d9,2D<5/2>,4d8 3F<4>,1047,4,,,,,,,,,,,
72,Hf XXIX,Hf,XXIX,28,Hafnium,Ru,[Kr].4d8,4d8,3F<4>,4d7 4F<9/2>,1094,4,,,,,,,,,,,
72,Hf XXX,Hf,XXX,29,Hafnium,Tc,[Kr].4d7,4d7,4F<9/2>,4d6 5D<4>,1146,4,,,,,,,,,,,
72,Hf XXXI,Hf,XXXI,30,Hafnium,Mo,[Kr].4d6,4d6,5D<4>,4d5 6S<5/2>,1195,4,,,,,,,,,,,
72,Hf XXXII,Hf,XXXII,31,Hafnium,Nb,[Kr].4d5,4d5,6S<5/2>,4d4 5D<0>,1245,4,,,,,,,,,,,
72,Hf XXXIII,Hf,XXXIII,32,Hafnium,Zr,[Kr].4d4,4d4,5D0,4d3 4F<3/2>,1311,4,,,,,,,,,,,
72,Hf XXXIV,Hf,XXXIV,33,Hafnium,Y,[Kr].4d3,4d3,4F<3/2>,4d2 3F<2>,1362,5,,,,,,,,,,,
72,Hf XXXV,Hf,XXXV,34,Hafnium,Sr,[Kr].4d2,4d2,3F<2>,4d 2D<3/2>,1417,5,,,,,,,,,,,
72,Hf XXXVI,Hf,XXXVI,35,Hafnium,Rb,[Kr].4d,4d,2D<3/2>,4p6 1S<0>,1467,5,,,,,,,,,,,
72,Hf XXXVII,Hf,XXXVII,36,Hafnium,Kr,[Ar].3d10.4s2.4p6,4p6,1S0,4p5 2P*<3/2>,1669,5,,,,,,,,,,,
72,Hf XXXVIII,Hf,XXXVIII,37,Hafnium,Br,[Ar].3d10.4s2.4p5,4p5,2P*<3/2>,4p4 3P<2>,1719,4,,,,,,,,,,,
72,Hf XXXIX,Hf,XXXIX,38,Hafnium,Se,[Ar].3d10.4s2.4p4,4p4,3P<2>,4p3 4S*<3/2>,1776,4,,,,,,,,,,,
72,Hf XL,Hf,XL,39,Hafnium,As,[Ar].3d10.4s2.4p3,4p3,4S*<3/2>,4p2 3P<0>,1827,4,,,,,,,,,,,
72,Hf XLI,Hf,XLI,40,Hafnium,Ge,[Ar].3d10.4s2.4p2,4p2,3P0,4p 2P*<1/2>,1963,4,,,,,,,,,,,
72,Hf XLII,Hf,XLII,41,Hafnium,Ga,[Ar].3d10.4s2.4p,4p,2P*<1/2>,4s2 1S<0>,2022,4,,,,,,,,,,,
72,Hf XLIII,Hf,XLIII,42,Hafnium,Zn,[Ar].3d10.4s2,4s2,1S0,4s 2S<1/2>,2159,4,,,,,,,,,,,
72,Hf XLIV,Hf,XLIV,43,Hafnium,Cu,[Ar].3d10.4s,4s,2S<1/2>,3d10 1S<0>,2218.9,1.1,,,,,,,,,,,
72,Hf XLV,Hf,XLV,44,Hafnium,Ni,[Ar].3d10,3d10,1S0,3d9 2D<5/2>,3741,4,,,,,,,,,,,
72,Hf XLVI,Hf,XLVI,45,Hafnium,Co,[Ar].3d9,3d9,2D<5/2>,3d8 3F<4>,3858,4,,,,,,,,,,,
72,Hf XLVII,Hf,XLVII,46,Hafnium,Fe,[Ar].3d8,3d8,3F<4>,3d7 4F<9/2>,3984,4,,,,,,,,,,,
72,Hf XLVIII,Hf,XLVIII,47,Hafnium,Mn,[Ar].3d7,3d7,4F<9/2>,"3d-4.3d+2 (0,4)<4>",4118,4,,,,,,,,,,,
72,Hf XLIX,Hf,XLIX,48,Hafnium,Cr,[Ar].3d6,3d-4.3d+2,"(0,4)<4>","3d-4.3d+ (0,5/2)<5/2>",4246,4,,,,,,,,,,,
72,Hf L,Hf,L,49,Hafnium,V,[Ar].3d5,3d-4.3d+,"(0,5/2)<5/2>",3d4 5D<0>,4372,4,,,,,,,,,,,
72,Hf LI,Hf,LI,50,Hafnium,Ti,[Ar].3d4,3d4,5D0,3d3 4F<3/2>,4573,4,,,,,,,,,,,
72,Hf LII,Hf,LII,51,Hafnium,Sc,[Ar].3d3,3d3,4F<3/2>,3d2 3F<2>,4703,4,,,,,,,,,,,
72,Hf LIII,Hf,LIII,52,Hafnium,Ca,[Ar].3d2,3d2,3F<2>,3d 2D<3/2>,4846,4,,,,,,,,,,,
72,Hf LIV,Hf,LIV,53,Hafnium,K,[Ar].3d,3d,2D<3/2>,3p6 1S<0>,4980,5,,,,,,,,,,,
72,Hf LV,Hf,LV,54,Hafnium,Ar,[Ne].3s2.3p6,3p6,1S0,3p5 2P*<3/2>,5350,5,,,,,,,,,,,
72,Hf LVI,Hf,LVI,55,Hafnium,Cl,[Ne].3s2.3p5,3p5,2P*<3/2>,3p4 3P<2>,5468,5,,,,,,,,,,,
72,Hf LVII,Hf,LVII,56,Hafnium,S,[Ne].3s2.3p4,3p4,3P<2>,3p3 2P*<3/2>,5595,5,,,,,,,,,,,
72,Hf LVIII,Hf,LVIII,57,Hafnium,P,[Ne].3s2.3p3,3p3,2P*<3/2>,3p2 3P<0>,5713,6,,,,,,,,,,,
72,Hf LIX,Hf,LIX,58,Hafnium,Si,[Ne].3s2.3p2,3p2,3P0,3p 2P*<1/2>,6149,6,,,,,,,,,,,
72,Hf LX,Hf,LX,59,Hafnium,Al,[Ne].3s2.3p,3p,2P*<1/2>,3s2 1S<0>,6284,7,,,,,,,,,,,
72,Hf LXI,Hf,LXI,60,Hafnium,Mg,[Ne].3s2,3s2,1S0,3s 2S<1/2>,6545,10,,,,,,,,,,,
72,Hf LXII,Hf,LXII,61,Hafnium,Na,[Ne].3s,3s,2S<1/2>,2p6 1S<0>,6674,12,,,,,,,,,,,
72,Hf LXIII,Hf,LXIII,62,Hafnium,Ne,1s2.2s2.2p6,2p6,1S0,2p5 2P*<3/2>,14678,15,,,,,,,,,,,
72,Hf LXIV,Hf,LXIV,63,Hafnium,F,1s2.2s2.2p5,2p5,2P*<3/2>,2p4 3P<2>,14999,19,,,,,,,,,,,
72,Hf LXV,Hf,LXV,64,Hafnium,O,1s2.2s2.2p4,2p4,3P<2>,"2p2<1/2>.2p<3/2> (0,3/2)*<3/2>",15351,24,,,,,,,,,,,
72,Hf LXVI,Hf,LXVI,65,Hafnium,N,1s2.2s2.2p3,2p2<1/2>.2p<3/2>,"(0,3/2)*<3/2>",2p2 3P<0>,15680,30,,,,,,,,,,,
72,Hf LXVII,Hf,LXVII,66,Hafnium,C,1s2.2s2.2p2,2p2,3P0,2p 2P*<1/2>,17280,40,,,,,,,,,,,
72,Hf LXVIII,Hf,LXVIII,67,Hafnium,B,1s2.2s2.2p,2p,2P*<1/2>,2s2 1S<0>,17680,40,,,,,,,,,,,
72,Hf LXIX,Hf,LXIX,68,Hafnium,Be,1s2.2s2,2s2,1S0,2s 2S<1/2>,18180,50,,,,,,,,,,,
72,Hf LXX,Hf,LXX,69,Hafnium,Li,1s2.2s,1s2.2s,2S<1/2>,1s2 1S<0>,18502.32,0.17,,,,,,,,,,,
72,Hf LXXI,Hf,LXXI,70,Hafnium,He,1s2,1s2,1S0,1s 2S<1/2>,74565.91,0.16,,,,,,,,,,,
72,Hf LXXII,Hf,LXXII,71,Hafnium,H,1s,1s,2S<1/2>,,76077.7,0.11,,,,,,,,,,,
73,Ta I,Ta,I,0,Tantalum,Ta,[Xe].4f14.5d3.6s2,5d3.6s2,4F<3/2>,5d3.6s 5F<1>,7.549571,0.000025,,,,,,,,,,,
73,Ta II,Ta,II,1,Tantalum,Hf,[Xe].4f14.5d3.6s,5d3.(4F).6s,5F<1>,5d3 4F<3/2>,16.2,0.5,,,,,,,,,,,
73,Ta III,Ta,III,2,Tantalum,Lu,[Xe].4f14.5d3,5d3,4F<3/2>,5d2 3F<2>,23.1,1.6,,,,,,,,,,,
73,Ta IV,Ta,IV,3,Tantalum,Yb,[Xe].4f14.5d2,5d2,3F<2>,5d 2D<3/2>,35,1.7,,,,,,,,,,,
73,Ta V,Ta,V,4,Tantalum,Tm,[Xe].4f14.5d,5d,2D<3/2>,4f14 1S<0>,48.272,0.025,,,,,,,,,,,
73,Ta VI,Ta,VI,5,Tantalum,Er,[Xe].4f14,4f14,1S0,4f13.5p6 2F*<7/2>,94.01,0.05,,,,,,,,,,,
73,Ta VII,Ta,VII,6,Tantalum,Ho,[Xe].4f13,4f13.5p6,2F*<7/2>,4f13.5p5,119,6,,,,,,,,,,,
73,Ta VIII,Ta,VIII,7,Tantalum,Dy,[Cd].4f13.5p5,4f13.5p5,,4f13.5p4*,139,7,,,,,,,,,,,
73,Ta IX,Ta,IX,8,Tantalum,Tb,[Cd].4f13.5p4,4f13.5p4,*,4f13.5p3,159,8,,,,,,,,,,,
73,Ta X,Ta,X,9,Tantalum,Gd,[Cd].4f13.5p3,4f13.5p3,,4f13.5p2 4F*<7/2>,180,9,,,,,,,,,,,
73,Ta XI,Ta,XI,10,Tantalum,Eu,[Cd].4f13.5p2,4f13.5p2,4F*<7/2>,4f13.5p,213,11,,,,,,,,,,,
73,Ta XII,Ta,XII,11,Tantalum,Sm,[Cd].4f13.5p,4f13.5p,,4f13.5s2 2F*<7/2>,235,12,,,,,,,,,,,
73,Ta XIII,Ta,XIII,12,Tantalum,Pm,[Cd].4f13,4f13.5s2,2F*<7/2>,4f12.5s2 3H<6>,262,14,,,,,,,,,,,
73,Ta XIV,Ta,XIV,13,Tantalum,Nd,[Cd].4f12,4f12.5s2,3H<6>,4f11.5s2 4I*<15/2>,304,15,,,,,,,,,,,
73,Ta XV,Ta,XV,14,Tantalum,Pr,[Cd].4f11,4f11.5s2,4I*<15/2>,4f11.5s 5I*<4>,338,17,,,,,,,,,,,
73,Ta XVI,Ta,XVI,15,Tantalum,Ce,[Kr].4d10.4f11.5s,4f11.5s,5I*<8>,4f11*,363,19,,,,,,,,,,,
73,Ta XVII,Ta,XVII,16,Tantalum,La,[Kr].4d10.4f11,4f11,*,4f10,396,20,,,,,,,,,,,
73,Ta XVIII,Ta,XVIII,17,Tantalum,Ba,[Kr].4d10.4f10,4f10,,4f9 6H*<15/2>,439,22,,,,,,,,,,,
73,Ta XIX,Ta,XIX,18,Tantalum,Cs,[Kr].4d10.4f9,4f9,6H*<15/2>,4f8 7F<6>,482,24,,,,,,,,,,,
73,Ta XX,Ta,XX,19,Tantalum,Xe,[Kr].4d10.4f8,4f8,7F<6>,4f7 8S*<7/2>,530,30,,,,,,,,,,,
73,Ta XXI,Ta,XXI,20,Tantalum,I,[Kr].4d10.4f7,4f7,8S*<7/2>,4f6 7F<0>,570,30,,,,,,,,,,,
73,Ta XXII,Ta,XXII,21,Tantalum,Te,[Kr].4d10.4f6,4f6,7F0,4f5 6H*<5/2>,610,30,,,,,,,,,,,
73,Ta XXIII,Ta,XXIII,22,Tantalum,Sb,[Kr].4d10.4f5,4f5,6H*<5/2>,4f4 5I<4>,660,30,,,,,,,,,,,
73,Ta XXIV,Ta,XXIV,23,Tantalum,Sn,[Kr].4d10.4f4,4f4,5I<4>,4f3 4I*<9/2>,700,30,,,,,,,,,,,
73,Ta XXV,Ta,XXV,24,Tantalum,In,[Kr].4d10.4f3,4f3,4I*<9/2>,4f2 3H<4>,750,40,,,,,,,,,,,
73,Ta XXVI,Ta,XXVI,25,Tantalum,Cd,[Kr].4d10.4f2,4f2,3H<4>,4f 2F*<5/2>,790,40,,,,,,,,,,,
73,Ta XXVII,Ta,XXVII,26,Tantalum,Ag,[Kr].4d10.4f,4f,2F*<5/2>,4d10 1S<0>,832,10,,,,,,,,,,,
73,Ta XXVIII,Ta,XXVIII,27,Tantalum,Pd,[Kr].4d10,4d10,1S0,4d9 2D<5/2>,1064,4,,,,,,,,,,,
73,Ta XXIX,Ta,XXIX,28,Tantalum,Rh,[Kr].4d9,4d9,2D<5/2>,4d8 3F<4>,1110,4,,,,,,,,,,,
73,Ta XXX,Ta,XXX,29,Tantalum,Ru,[Kr].4d8,4d8,3F<4>,4d7 4F<9/2>,1160,4,,,,,,,,,,,
73,Ta XXXI,Ta,XXXI,30,Tantalum,Tc,[Kr].4d7,4d7,4F<9/2>,4d6 5D<4>,1211,4,,,,,,,,,,,
73,Ta XXXII,Ta,XXXII,31,Tantalum,Mo,[Kr].4d6,4d6,5D<4>,4d5 6S<5/2>,1262,4,,,,,,,,,,,
73,Ta XXXIII,Ta,XXXIII,32,Tantalum,Nb,[Kr].4d5,4d5,6S<5/2>,4d4 5D<0>,1313,4,,,,,,,,,,,
73,Ta XXXIV,Ta,XXXIV,33,Tantalum,Zr,[Kr].4d4,4d4,5D0,4d3 4F<3/2>,1382,5,,,,,,,,,,,
73,Ta XXXV,Ta,XXXV,34,Tantalum,Y,[Kr].4d3,4d3,4F<3/2>,4d2 3F<2>,1434,5,,,,,,,,,,,
73,Ta XXXVI,Ta,XXXVI,35,Tantalum,Sr,[Kr].4d2,4d2,3F<2>,4d 2D<3/2>,1490,5,,,,,,,,,,,
73,Ta XXXVII,Ta,XXXVII,36,Tantalum,Rb,[Kr].4d,4d,2D<3/2>,4p6 1S<0>,1542,5,,,,,,,,,,,
73,Ta XXXVIII,Ta,XXXVIII,37,Tantalum,Kr,[Ar].3d10.4s2.4p6,4p6,1S0,4p5 2P*<3/2>,1748,4,,,,,,,,,,,
73,Ta XXXIX,Ta,XXXIX,38,Tantalum,Br,[Ar].3d10.4s2.4p5,4p5,2P*<3/2>,4p4 3P<2>,1799,4,,,,,,,,,,,
73,Ta XL,Ta,XL,39,Tantalum,Se,[Ar].3d10.4s2.4p4,4p4,3P<2>,4p3 4S*<3/2>,1857,4,,,,,,,,,,,
73,Ta XLI,Ta,XLI,40,Tantalum,As,[Ar].3d10.4s2.4p3,4p3,4S*<3/2>,4p2 3P<0>,1910,4,,,,,,,,,,,
73,Ta XLII,Ta,XLII,41,Tantalum,Ge,[Ar].3d10.4s2.4p2,4p2,3P0,4p 2P*<1/2>,2053,4,,,,,,,,,,,
73,Ta XLIII,Ta,XLIII,42,Tantalum,Ga,[Ar].3d10.4s2.4p,4p,2P*<1/2>,4s2 1S<0>,2113,4,,,,,,,,,,,
73,Ta XLIV,Ta,XLIV,43,Tantalum,Zn,[Ar].3d10.4s2,4s2,1S0,4s 2S<1/2>,2254,4,,,,,,,,,,,
73,Ta XLV,Ta,XLV,44,Tantalum,Cu,[Ar].3d10.4s,4s,2S<1/2>,3d10 1S<0>,2314.7,1.9,,,,,,,,,,,
73,Ta XLVI,Ta,XLVI,45,Tantalum,Ni,[Ar].3d10,3d10,1S0,3d9 2D<5/2>,3898.7,2.5,,,,,,,,,,,
73,Ta XLVII,Ta,XLVII,46,Tantalum,Co,[Ar].3d9,3d9,2D<5/2>,3d8 3F<4>,4014,4,,,,,,,,,,,
73,Ta XLVIII,Ta,XLVIII,47,Tantalum,Fe,[Ar].3d8,3d8,3F<4>,3d7 4F<9/2>,4143,4,,,,,,,,,,,
73,Ta XLIX,Ta,XLIX,48,Tantalum,Mn,[Ar].3d7,3d7,4F<9/2>,"3d-4.3d+2 (0,4)<4>",4278,4,,,,,,,,,,,
73,Ta L,Ta,L,49,Tantalum,Cr,[Ar].3d6,3d-4.3d+2,"(0,4)<4>","3d-4.3d+ (0,5/2)<5/2>",4410,4,,,,,,,,,,,
73,Ta LI,Ta,LI,50,Tantalum,V,[Ar].3d5,3d-4.3d+,"(0,5/2)<5/2>",3d4 5D<0>,4537,4,,,,,,,,,,,
73,Ta LII,Ta,LII,51,Tantalum,Ti,[Ar].3d4,3d4,5D0,3d3 4F<3/2>,4745,4,,,,,,,,,,,
73,Ta LIII,Ta,LIII,52,Tantalum,Sc,[Ar].3d3,3d3,4F<3/2>,3d2 3F<2>,4877,4,,,,,,,,,,,
73,Ta LIV,Ta,LIV,53,Tantalum,Ca,[Ar].3d2,3d2,3F<2>,3d 2D<3/2>,5024,5,,,,,,,,,,,
73,Ta LV,Ta,LV,54,Tantalum,K,[Ar].3d,3d,2D<3/2>,3p6 1S<0>,5159,5,,,,,,,,,,,
73,Ta LVI,Ta,LVI,55,Tantalum,Ar,[Ne].3s2.3p6,3p6,1S0,3p5 2P*<3/2>,5537,5,,,,,,,,,,,
73,Ta LVII,Ta,LVII,56,Tantalum,Cl,[Ne].3s2.3p5,3p5,2P*<3/2>,3p4 3P<2>,5655,5,,,,,,,,,,,
73,Ta LVIII,Ta,LVIII,57,Tantalum,S,[Ne].3s2.3p4,3p4,3P<2>,3p3 2P*<3/2>,5785,6,,,,,,,,,,,
73,Ta LIX,Ta,LIX,58,Tantalum,P,[Ne].3s2.3p3,3p3,2P*<3/2>,3p2 3P<0>,5907,6,,,,,,,,,,,
73,Ta LX,Ta,LX,59,Tantalum,Si,[Ne].3s2.3p2,3p2,3P0,3p 2P*<1/2>,6364,7,,,,,,,,,,,
73,Ta LXI,Ta,LXI,60,Tantalum,Al,[Ne].3s2.3p,3p,2P*<1/2>,3s2 1S<0>,6502,10,,,,,,,,,,,
73,Ta LXII,Ta,LXII,61,Tantalum,Mg,[Ne].3s2,3s2,1S0,3s 2S<1/2>,6769,12,,,,,,,,,,,
73,Ta LXIII,Ta,LXIII,62,Tantalum,Na,[Ne].3s,3s,2S<1/2>,2p6 1S<0>,6900,15,,,,,,,,,,,
73,Ta LXIV,Ta,LXIV,63,Tantalum,Ne,1s2.2s2.2p6,2p6,1S0,2p5 2P*<3/2>,15137,19,,,,,,,,,,,
73,Ta LXV,Ta,LXV,64,Tantalum,F,1s2.2s2.2p5,2p5,2P*<3/2>,2p4 3P<2>,15461,24,,,,,,,,,,,
73,Ta LXVI,Ta,LXVI,65,Tantalum,O,1s2.2s2.2p4,2p4,3P<2>,"2p2<1/2>.2p<3/2> (0,3/2)*<3/2>",15820,30,,,,,,,,,,,
73,Ta LXVII,Ta,LXVII,66,Tantalum,N,1s2.2s2.2p3,2p2<1/2>.2p<3/2>,"(0,3/2)*<3/2>",2p2 3P<0>,16150,40,,,,,,,,,,,
73,Ta LXVIII,Ta,LXVIII,67,Tantalum,C,1s2.2s2.2p2,2p2,3P0,2p 2P*<1/2>,17840,40,,,,,,,,,,,
73,Ta LXIX,Ta,LXIX,68,Tantalum,B,1s2.2s2.2p,2p,2P*<1/2>,2s2 1S<0>,18250,50,,,,,,,,,,,
73,Ta LXX,Ta,LXX,69,Tantalum,Be,1s2.2s2,2s2,1S0,2s 2S<1/2>,18760,50,,,,,,,,,,,
73,Ta LXXI,Ta,LXXI,70,Tantalum,Li,1s2.2s,1s2.2s,2S<1/2>,1s2 1S<0>,19088.51,0.19,,,,,,,,,,,
73,Ta LXXII,Ta,LXXII,71,Tantalum,He,1s2,1s2,1S0,1s 2S<1/2>,76852,0.17,,,,,,,,,,,
73,Ta LXXIII,Ta,LXXIII,72,Tantalum,H,1s,1s,2S<1/2>,,78394.63,0.12,,,,,,,,,,,
74,W I,W,I,0,Tungsten,W,[Xe].4f14.5d4.6s2,5d4.6s2,5D0,5d4.6s 6D<1/2>,7.86403,0.0001,,,,,,,,,,,
74,W II,W,II,1,Tungsten,Ta,[Xe].4f14.5d4.6s,5d4.(5D).6s,6D<1/2>,5d4 5D<0>,16.37,0.15,,,,,,,,,,,
74,W III,W,III,2,Tungsten,Hf,[Xe].4f14.5d4,5d4,5D0,5d3 4F<3/2>,26,0.4,,,,,,,,,,,
74,W IV,W,IV,3,Tungsten,Lu,[Xe].4f14.5d3,5d3,4F<3/2>,5d2 3F<2>,38.2,0.4,,,,,,,,,,,
74,W V,W,V,4,Tungsten,Yb,[Xe].4f14.5d2,5d2,3F<2>,5d 2D<3/2>,51.6,0.3,,,,,,,,,,,
74,W VI,W,VI,5,Tungsten,Tm,[Xe].4f14.5d,5d,2D<3/2>,4f14 1S<0>,64.77,0.04,,,,,,,,,,,
74,W VII,W,VII,6,Tungsten,Er,[Xe].4f14,4f14.5p6,1S0,4f13.5p6 2F*<7/2>,122.01,0.06,,,,,,,,,,,
74,W VIII,W,VIII,7,Tungsten,Ho,[Xe].4f13,4f13.5p6,2F*<7/2>,4f14.5p4 3P<2>,141.2,1.2,,,,,,,,,,,
74,W IX,W,IX,8,Tungsten,Dy,[Cd].4f14.5p4,4f14.5p4,3P<2>,4f14.5p3 2P*<3/2>,160.2,1.2,,,,,,,,,,,
74,W X,W,X,9,Tungsten,Tb,[Cd].4f14.5p3,4f14.5p3,2P*<3/2>,4f14.5p2 3P<0>,179,1.2,,,,,,,,,,,
74,W XI,W,XI,10,Tungsten,Gd,[Cd].4f14.5p2,4f14.5p2,3P0,4f13.5p2 4F*<7/2>,208.9,1.2,,,,,,,,,,,
74,W XII,W,XII,11,Tungsten,Eu,[Cd].4f13.5p2,4f13.5p2,4F*<7/2>,4f14 1S<0>,231.6,1.2,,,,,,,,,,,
74,W XIII,W,XIII,12,Tungsten,Sm,[Cd].4f14,4f14.5s2,1S0,4f13.5s2 2F*<7/2>,258.3,1.2,,,,,,,,,,,
74,W XIV,W,XIV,13,Tungsten,Pm,[Cd].4f13,4f13.5s2,2F*<7/2>,4f12.5s2 3H<6>,290.7,1.2,,,,,,,,,,,
74,W XV,W,XV,14,Tungsten,Nd,[Cd].4f12,4f12.5s2,3H<6>,4f11.5s2 4I*<15/2>,325.3,1.5,,,,,,,,,,,
74,W XVI,W,XVI,15,Tungsten,Pr,[Cd].4f11,4f11.5s2,4I*<15/2>,4f11.5s 5I*<8>,361.9,1.5,,,,,,,,,,,
74,W XVII,W,XVII,16,Tungsten,Ce,[Kr].4d10.4f11.5s,4f11.(4I*).5s,5I*<8>,4f11 4I*<15/2>,387.9,1.2,,,,,,,,,,,
74,W XVIII,W,XVIII,17,Tungsten,La,[Kr].4d10.4f11,4d10.4f11,4I*<15/2>,4f10 5I<8>,420.7,1.4,,,,,,,,,,,
74,W XIX,W,XIX,18,Tungsten,Ba,[Kr].4d10.4f10,4d10.4f10,5I<8>,4f9 6H*<15/2>,462.1,1.4,,,,,,,,,,,
74,W XX,W,XX,19,Tungsten,Cs,[Kr].4d10.4f9,4d10.4f9,6H*<15/2>,4f8 7F<6>,502.6,1.4,,,,,,,,,,,
74,W XXI,W,XXI,20,Tungsten,Xe,[Kr].4d10.4f8,4d10.4f8,7F<6>,4f7 8S*<7/2>,543.4,1.4,,,,,,,,,,,
74,W XXII,W,XXII,21,Tungsten,I,[Kr].4d10.4f7,4d10.4f7,8S*<7/2>,4f6 7F<0>,594.5,1.5,,,,,,,,,,,
74,W XXIII,W,XXIII,22,Tungsten,Te,[Kr].4d10.4f6,4d10.4f6,7F0,4f5 6H*<5/2>,640.6,1.5,,,,,,,,,,,
74,W XXIV,W,XXIV,23,Tungsten,Sb,[Kr].4d10.4f5,4d10.4f5,6H*<5/2>,4f4 5I<4>,685.6,1.6,,,,,,,,,,,
74,W XXV,W,XXV,24,Tungsten,Sn,[Kr].4d10.4f4,4d10.4f4,5I<4>,4f3 4I*<9/2>,734.1,1.7,,,,,,,,,,,
74,W XXVI,W,XXVI,25,Tungsten,In,[Kr].4d10.4f3,4d10.4f3,4I*<9/2>,4f2 3H<4>,784.4,1.9,,,,,,,,,,,
74,W XXVII,W,XXVII,26,Tungsten,Cd,[Kr].4d10.4f2,4d10.4f2,3H<4>,4f 2F*<5/2>,833.4,1.9,,,,,,,,,,,
74,W XXVIII,W,XXVIII,27,Tungsten,Ag,[Kr].4d10.4f,4d10.4f,2F*<5/2>,4d10 1S<0>,881.4,1.6,,,,,,,,,,,
74,W XXIX,W,XXIX,28,Tungsten,Pd,[Kr].4d10,4d10,1S0,4d9 2D<5/2>,1132.2,1.4,,,,,,,,,,,
74,W XXX,W,XXX,29,Tungsten,Rh,[Kr].4d9,4d9,2D<5/2>,4d8 3F<4>,1180,1.4,,,,,,,,,,,
74,W XXXI,W,XXXI,30,Tungsten,Ru,[Kr].4d8,4d8,3F<4>,4d7 4F<9/2>,1230.4,1.4,,,,,,,,,,,
74,W XXXII,W,XXXII,31,Tungsten,Tc,[Kr].4d7,4d7,4F<9/2>,4d6 5D<4>,1283.4,1.4,,,,,,,,,,,
74,W XXXIII,W,XXXIII,32,Tungsten,Mo,[Kr].4d6,4d6,5D<4>,4d5 4P<5/2>,1335.1,1.4,,,,,,,,,,,
74,W XXXIV,W,XXXIV,33,Tungsten,Nb,[Kr].4d5,4d5,4P<5/2>,4d4 3P1<0>,1386.8,1.4,,,,,,,,,,,
74,W XXXV,W,XXXV,34,Tungsten,Zr,[Kr].4d4,4d4,3P10,4d3 4F<3/2>,1459.9,1.5,,,,,,,,,,,
74,W XXXVI,W,XXXVI,35,Tungsten,Y,[Kr].4d3,4d3,4F<3/2>,4d2 3F<2>,1512.4,1.5,,,,,,,,,,,
74,W XXXVII,W,XXXVII,36,Tungsten,Sr,[Kr].4d2,4d2,3F<2>,4d 2D<3/2>,1569.1,1.5,,,,,,,,,,,
74,W XXXVIII,W,XXXVIII,37,Tungsten,Rb,[Kr].4d,4p6.4d,2D<3/2>,4p6 1S<0>,1621.7,1.5,,,,,,,,,,,
74,W XXXIX,W,XXXIX,38,Tungsten,Kr,[Ar].3d10.4s2.4p6,4p6,1S0,4p5 2P*<3/2>,1829.8,1.9,,,,,,,,,,,