At. num,Sp. Name,Element,Valence,Ion Charge,El. Name,Isoel. Seq.,Ground Shells (a),Ground Config.,Ground Level,Ionized Level,Ionization Energy (b) (eV),Uncertainty (c) (eV),,,,,,,,,,,
68,Er IX,Er,IX,8,Erbium,Nd,[Cd].4f10.5p2,4f10.5s2.5p2,,4f10.5s2.5p*,158,8,,,,,,,,,,,
68,Er X,Er,X,9,Erbium,Pr,[Cd].4f10.5p,4f10.5s2.5p,*,4f10.5s2,177,9,,,,,,,,,,,
68,Er XI,Er,XI,10,Erbium,Ce,[Cd].4f10,4f10.5s2,,4f9.5s2*,201,10,,,,,,,,,,,
68,Er XII,Er,XII,11,Erbium,La,[Cd].4f9,4f9.5s2,*,4f8.5s2,235,11,,,,,,,,,,,
68,Er XIII,Er,XIII,12,Erbium,Ba,[Cd].4f8,4f8.5s2,,4f7.5s2*,268,14,,,,,,,,,,,
68,Er XIV,Er,XIV,13,Erbium,Cs,[Cd].4f7,4f7.5s2,*,4f7.5s*,290,15,,,,,,,,,,,
68,Er XV,Er,XV,14,Erbium,Xe,[Kr].4d10.4f7.5s,4f7.5s,*,4f7 8S*<7/2>,311,16,,,,,,,,,,,
68,Er XVI,Er,XVI,15,Erbium,I,[Kr].4d10.4f7,4f7,8S*<7/2>,4f6 7F<0>,345,17,,,,,,,,,,,
68,Er XVII,Er,XVII,16,Erbium,Te,[Kr].4d10.4f6,4f6,7F0,4f5 6H*<5/2>,381,19,,,,,,,,,,,
68,Er XVIII,Er,XVIII,17,Erbium,Sb,[Kr].4d10.4f5,4f5,6H*<5/2>,4f4 5I<4>,415,21,,,,,,,,,,,
68,Er XIX,Er,XIX,18,Erbium,Sn,[Kr].4d10.4f4,4f4,5I<4>,4f3 4I*<9/2>,450,22,,,,,,,,,,,
68,Er XX,Er,XX,19,Erbium,In,[Kr].4d10.4f3,4f3,4I*<9/2>,4f2 3H<4>,486,25,,,,,,,,,,,
68,Er XXI,Er,XXI,20,Erbium,Cd,[Kr].4d10.4f2,4f2,3H<4>,4f 2F*<5/2>,520,30,,,,,,,,,,,
68,Er XXII,Er,XXII,21,Erbium,Ag,[Kr].4d10.4f,4f,2F*<5/2>,4d10 1S<0>,555,5,,,,,,,,,,,
68,Er XXIII,Er,XXIII,22,Erbium,Pd,[Kr].4d10,4d10,1S0,4d9 2D<5/2>,770,4,,,,,,,,,,,
68,Er XXIV,Er,XXIV,23,Erbium,Rh,[Kr].4d9,4d9,2D<5/2>,4d8 3F<4>,810,4,,,,,,,,,,,
68,Er XXV,Er,XXV,24,Erbium,Ru,[Kr].4d8,4d8,3F<4>,4d7 4F<9/2>,853,4,,,,,,,,,,,
68,Er XXVI,Er,XXVI,25,Erbium,Tc,[Kr].4d7,4d7,4F<9/2>,4d6 5D<4>,899,4,,,,,,,,,,,
68,Er XXVII,Er,XXVII,26,Erbium,Mo,[Kr].4d6,4d6,5D<4>,4d5 6S<5/2>,943,4,,,,,,,,,,,
68,Er XXVIII,Er,XXVIII,27,Erbium,Nb,[Kr].4d5,4d5,6S<5/2>,4d4 5D<0>,989,4,,,,,,,,,,,
68,Er XXIX,Er,XXIX,28,Erbium,Zr,[Kr].4d4,4d4,5D0,4d3 4F<3/2>,1046,4,,,,,,,,,,,
68,Er XXX,Er,XXX,29,Erbium,Y,[Kr].4d3,4d3,4F<3/2>,4d2 3F<2>,1092,4,,,,,,,,,,,
68,Er XXXI,Er,XXXI,30,Erbium,Sr,[Kr].4d2,4d2,3F<2>,4d 2D<3/2>,1142,4,,,,,,,,,,,
68,Er XXXII,Er,XXXII,31,Erbium,Rb,[Kr].4d,4d,2D<3/2>,4p6 1S<0>,1188,4,,,,,,,,,,,
68,Er XXXIII,Er,XXXIII,32,Erbium,Kr,[Ar].3d10.4s2.4p6,4p6,1S0,4p5 2P*<3/2>,1370,4,,,,,,,,,,,
68,Er XXXIV,Er,XXXIV,33,Erbium,Br,[Ar].3d10.4s2.4p5,4p5,2P*<3/2>,4p4 3P<2>,1416,5,,,,,,,,,,,
68,Er XXXV,Er,XXXV,34,Erbium,Se,[Ar].3d10.4s2.4p4,4p4,3P<2>,4p3 4S*<3/2>,1468,5,,,,,,,,,,,
68,Er XXXVI,Er,XXXVI,35,Erbium,As,[Ar].3d10.4s2.4p3,4p3,4S*<3/2>,4p2 3P<0>,1516,5,,,,,,,,,,,
68,Er XXXVII,Er,XXXVII,36,Erbium,Ge,[Ar].3d10.4s2.4p2,4p2,3P0,4p 2P*<1/2>,1625,5,,,,,,,,,,,
68,Er XXXVIII,Er,XXXVIII,37,Erbium,Ga,[Ar].3d10.4s2.4p,4p,2P*<1/2>,4s2 1S<0>,1678,4,,,,,,,,,,,
68,Er XXXIX,Er,XXXIX,38,Erbium,Zn,[Ar].3d10.4s2,4s2,1S0,4s 2S<1/2>,1803,4,,,,,,,,,,,
68,Er XL,Er,XL,39,Erbium,Cu,[Ar].3d10.4s,4s,2S<1/2>,3d10 1S<0>,1858.5,0.5,,,,,,,,,,,
68,Er XLI,Er,XLI,40,Erbium,Ni,[Ar].3d10,3d10,1S0,3d9 2D<5/2>,3157,4,,,,,,,,,,,
68,Er XLII,Er,XLII,41,Erbium,Co,[Ar].3d9,3d9,2D<5/2>,3d8 3F<4>,3265,4,,,,,,,,,,,
68,Er XLIII,Er,XLIII,42,Erbium,Fe,[Ar].3d8,3d8,3F<4>,3d7 4F<9/2>,3381,4,,,,,,,,,,,
68,Er XLIV,Er,XLIV,43,Erbium,Mn,[Ar].3d7,3d7,4F<9/2>,"3d-4.3d+2 (0,4)<4>",3505,4,,,,,,,,,,,
68,Er XLV,Er,XLV,44,Erbium,Cr,[Ar].3d6,3d-4.3d+2,"(0,4)<4>","3d-4.3d+ (0,5/2)<5/2>",3624,4,,,,,,,,,,,
68,Er XLVI,Er,XLVI,45,Erbium,V,[Ar].3d5,3d-4.3d+,"(0,5/2)<5/2>",3d4 5D<0>,3742,4,,,,,,,,,,,
68,Er XLVII,Er,XLVII,46,Erbium,Ti,[Ar].3d4,3d4,5D0,3d3 4F<3/2>,3916,4,,,,,,,,,,,
68,Er XLVIII,Er,XLVIII,47,Erbium,Sc,[Ar].3d3,3d3,4F<3/2>,3d2 3F<2>,4038,4,,,,,,,,,,,
68,Er XLIX,Er,XLIX,48,Erbium,Ca,[Ar].3d2,3d2,3F<2>,3d 2D<3/2>,4170,4,,,,,,,,,,,
68,Er L,Er,L,49,Erbium,K,[Ar].3d,3d,2D<3/2>,3p6 1S<0>,4294,4,,,,,,,,,,,
68,Er LI,Er,LI,50,Erbium,Ar,[Ne].3s2.3p6,3p6,1S0,3p5 2P*<3/2>,4639,4,,,,,,,,,,,
68,Er LII,Er,LII,51,Erbium,Cl,[Ne].3s2.3p5,3p5,2P*<3/2>,3p4 3P<2>,4748,4,,,,,,,,,,,
68,Er LIII,Er,LIII,52,Erbium,S,[Ne].3s2.3p4,3p4,3P<2>,3p3 2P*<3/2>,4866,4,,,,,,,,,,,
68,Er LIV,Er,LIV,53,Erbium,P,[Ne].3s2.3p3,3p3,2P*<3/2>,3p2 3P<0>,4978,5,,,,,,,,,,,
68,Er LV,Er,LV,54,Erbium,Si,[Ne].3s2.3p2,3p2,3P0,3p 2P*<1/2>,5329,5,,,,,,,,,,,
68,Er LVI,Er,LVI,55,Erbium,Al,[Ne].3s2.3p,3p,2P*<1/2>,3s2 1S<0>,5455,5,,,,,,,,,,,
68,Er LVII,Er,LVII,56,Erbium,Mg,[Ne].3s2,3s2,1S0,3s 2S<1/2>,5695,5,,,,,,,,,,,
68,Er LVIII,Er,LVIII,57,Erbium,Na,[Ne].3s,3s,2S<1/2>,2p6 1S<0>,5815,6,,,,,,,,,,,
68,Er LIX,Er,LIX,58,Erbium,Ne,1s2.2s2.2p6,2p6,1S0,2p5 2P*<3/2>,12918,6,,,,,,,,,,,
68,Er LX,Er,LX,59,Erbium,F,1s2.2s2.2p5,2p5,2P*<3/2>,2p4 3P<2>,13217,7,,,,,,,,,,,
68,Er LXI,Er,LXI,60,Erbium,O,1s2.2s2.2p4,2p4,3P<2>,"2p2<1/2>.2p<3/2> (0,3/2)*<3/2>",13548,10,,,,,,,,,,,
68,Er LXII,Er,LXII,61,Erbium,N,1s2.2s2.2p3,2p2<1/2>.2p<3/2>,"(0,3/2)*<3/2>",2p2 3P<0>,13855,12,,,,,,,,,,,
68,Er LXIII,Er,LXIII,62,Erbium,C,1s2.2s2.2p2,2p2,3P0,2p 2P*<1/2>,15146,15,,,,,,,,,,,
68,Er LXIV,Er,LXIV,63,Erbium,B,1s2.2s2.2p,2p,2P*<1/2>,2s2 1S<0>,15511,19,,,,,,,,,,,
68,Er LXV,Er,LXV,64,Erbium,Be,1s2.2s2,2s2,1S0,2s 2S<1/2>,15971,24,,,,,,,,,,,
68,Er LXVI,Er,LXVI,65,Erbium,Li,1s2.2s,1s2.2s,2S<1/2>,1s2 1S<0>,16274.56,0.12,,,,,,,,,,,
68,Er LXVII,Er,LXVII,66,Erbium,He,1s2,1s2,1S0,1s 2S<1/2>,65848.24,0.12,,,,,,,,,,,
68,Er LXVIII,Er,LXVIII,67,Erbium,H,1s,1s,2S<1/2>,,67241.48,0.07,,,,,,,,,,,
69,Tm I,Tm,I,0,Thulium,Tm,[Xe].4f13.6s2,4f13.(2F*).6s2,2F*<7/2>,"4f13.6s (7/2,1/2)*<4>",6.184402,0.000009,,,,,,,,,,,
69,Tm II,Tm,II,1,Thulium,Er,[Xe].4f13.6s,4f13.(2F*<7/2>).6s<1/2>,"(7/2,1/2)*<4>",4f13.5p6 2F*<7/2>,12.065,0.02,,,,,,,,,,,
69,Tm III,Tm,III,2,Thulium,Ho,[Xe].4f13,4f13,2F*<7/2>,4f12.5p6 3H<6>,23.66,0.03,,,,,,,,,,,
69,Tm IV,Tm,IV,3,Thulium,Dy,[Xe].4f12,4f12,3H<6>,4f11 4I*<15/2>,42.41,0.04,,,,,,,,,,,
69,Tm V,Tm,V,4,Thulium,Tb,[Xe].4f11,4f11.5p6,4I*<15/2>,4f11.5p5 5I<8>,65.4,0.3,,,,,,,,,,,
69,Tm VI,Tm,VI,5,Thulium,Gd,[Cd].4f11.5p5,4f11.5p5,5I<8>,4f11.5p4*,98,5,,,,,,,,,,,
69,Tm VII,Tm,VII,6,Thulium,Eu,[Cd].4f11.5p4,4f11.5p4,*,4f11.5p3,116,6,,,,,,,,,,,
69,Tm VIII,Tm,VIII,7,Thulium,Sm,[Cd].4f11.5p3,4f11.5p3,,4f11.5s2.5p2*,133,7,,,,,,,,,,,
69,Tm IX,Tm,IX,8,Thulium,Pm,[Cd].4f11.5p2,4f11.5s2.5p2,*,4f11.5s2.5p,160,8,,,,,,,,,,,
69,Tm X,Tm,X,9,Thulium,Nd,[Cd].4f11.5p,4f11.5s2.5p,,4f11.5s2 4I*<15/2>,180,9,,,,,,,,,,,
69,Tm XI,Tm,XI,10,Thulium,Pr,[Cd].4f11,4f11.5s2,4I*<15/2>,4f10.5s2,205,10,,,,,,,,,,,
69,Tm XII,Tm,XII,11,Thulium,Ce,[Cd].4f10,4f10.5s2,,4f9.5s2*,239,12,,,,,,,,,,,
69,Tm XIII,Tm,XIII,12,Thulium,La,[Cd].4f9,4f9.5s2,*,4f9.5s*,274,14,,,,,,,,,,,
69,Tm XIV,Tm,XIV,13,Thulium,Ba,[Kr].4d10.4f9.5s,4f9.5s,*,4f9 6H*<15/2>,295,15,,,,,,,,,,,
69,Tm XV,Tm,XV,14,Thulium,Cs,[Kr].4d10.4f9,4f9,6H*<15/2>,4f8 7F<6>,317,16,,,,,,,,,,,
69,Tm XVI,Tm,XVI,15,Thulium,Xe,[Kr].4d10.4f8,4f8,7F<6>,4f7 8S*<7/2>,352,17,,,,,,,,,,,
69,Tm XVII,Tm,XVII,16,Thulium,I,[Kr].4d10.4f7,4f7,8S*<7/2>,4f6 7F<0>,387,20,,,,,,,,,,,
69,Tm XVIII,Tm,XVIII,17,Thulium,Te,[Kr].4d10.4f6,4f6,7F0,4f5 6H*<5/2>,424,21,,,,,,,,,,,
69,Tm XIX,Tm,XIX,18,Thulium,Sb,[Kr].4d10.4f5,4f5,6H*<5/2>,4f4 5I<4>,460,24,,,,,,,,,,,
69,Tm XX,Tm,XX,19,Thulium,Sn,[Kr].4d10.4f4,4f4,5I<4>,4f3 4I*<9/2>,496,25,,,,,,,,,,,
69,Tm XXI,Tm,XXI,20,Thulium,In,[Kr].4d10.4f3,4f3,4I*<9/2>,4f2 3H<4>,530,30,,,,,,,,,,,
69,Tm XXII,Tm,XXII,21,Thulium,Cd,[Kr].4d10.4f2,4f2,3H<4>,4f 2F*<5/2>,570,30,,,,,,,,,,,
69,Tm XXIII,Tm,XXIII,22,Thulium,Ag,[Kr].4d10.4f,4f,2F*<5/2>,4d10 1S<0>,603,6,,,,,,,,,,,
69,Tm XXIV,Tm,XXIV,23,Thulium,Pd,[Kr].4d10,4d10,1S0,4d9 2D<5/2>,825,4,,,,,,,,,,,
69,Tm XXV,Tm,XXV,24,Thulium,Rh,[Kr].4d9,4d9,2D<5/2>,4d8 3F<4>,866,4,,,,,,,,,,,
69,Tm XXVI,Tm,XXVI,25,Thulium,Ru,[Kr].4d8,4d8,3F<4>,4d7 4F<9/2>,911,4,,,,,,,,,,,
69,Tm XXVII,Tm,XXVII,26,Thulium,Tc,[Kr].4d7,4d7,4F<9/2>,4d6 5D<4>,958,4,,,,,,,,,,,
69,Tm XXVIII,Tm,XXVIII,27,Thulium,Mo,[Kr].4d6,4d6,5D<4>,4d5 6S<5/2>,1004,4,,,,,,,,,,,
69,Tm XXIX,Tm,XXIX,28,Thulium,Nb,[Kr].4d5,4d5,6S<5/2>,4d4 5D<0>,1050,4,,,,,,,,,,,
69,Tm XXX,Tm,XXX,29,Thulium,Zr,[Kr].4d4,4d4,5D0,4d3 4F<3/2>,1110,4,,,,,,,,,,,
69,Tm XXXI,Tm,XXXI,30,Thulium,Y,[Kr].4d3,4d3,4F<3/2>,4d2 3F<2>,1157,4,,,,,,,,,,,
69,Tm XXXII,Tm,XXXII,31,Thulium,Sr,[Kr].4d2,4d2,3F<2>,4d 2D<3/2>,1207,4,,,,,,,,,,,
69,Tm XXXIII,Tm,XXXIII,32,Thulium,Rb,[Kr].4d,4d,2D<3/2>,4p6 1S<0>,1255,4,,,,,,,,,,,
69,Tm XXXIV,Tm,XXXIV,33,Thulium,Kr,[Ar].3d10.4s2.4p6,4p6,1S0,4p5 2P*<3/2>,1442,5,,,,,,,,,,,
69,Tm XXXV,Tm,XXXV,34,Thulium,Br,[Ar].3d10.4s2.4p5,4p5,2P*<3/2>,4p4 3P<2>,1490,5,,,,,,,,,,,
69,Tm XXXVI,Tm,XXXVI,35,Thulium,Se,[Ar].3d10.4s2.4p4,4p4,3P<2>,4p3 4S*<3/2>,1542,5,,,,,,,,,,,
69,Tm XXXVII,Tm,XXXVII,36,Thulium,As,[Ar].3d10.4s2.4p3,4p3,4S*<3/2>,4p2 3P<0>,1591,5,,,,,,,,,,,
69,Tm XXXVIII,Tm,XXXVIII,37,Thulium,Ge,[Ar].3d10.4s2.4p2,4p2,3P0,4p 2P*<1/2>,1706,4,,,,,,,,,,,
69,Tm XXXIX,Tm,XXXIX,38,Thulium,Ga,[Ar].3d10.4s2.4p,4p,2P*<1/2>,4s2 1S<0>,1761,4,,,,,,,,,,,
69,Tm XL,Tm,XL,39,Thulium,Zn,[Ar].3d10.4s2,4s2,1S0,4s 2S<1/2>,1889,4,,,,,,,,,,,
69,Tm XLI,Tm,XLI,40,Thulium,Cu,[Ar].3d10.4s,4s,2S<1/2>,3d10 1S<0>,1945.2,1,,,,,,,,,,,
69,Tm XLII,Tm,XLII,41,Thulium,Ni,[Ar].3d10,3d10,1S0,3d9 2D<5/2>,3298,4,,,,,,,,,,,
69,Tm XLIII,Tm,XLIII,42,Thulium,Co,[Ar].3d9,3d9,2D<5/2>,3d8 3F<4>,3409,4,,,,,,,,,,,
69,Tm XLIV,Tm,XLIV,43,Thulium,Fe,[Ar].3d8,3d8,3F<4>,3d7 4F<9/2>,3528,4,,,,,,,,,,,
69,Tm XLV,Tm,XLV,44,Thulium,Mn,[Ar].3d7,3d7,4F<9/2>,"3d-4.3d+2 (0,4)<4>",3653,4,,,,,,,,,,,
69,Tm XLVI,Tm,XLVI,45,Thulium,Cr,[Ar].3d6,3d-4.3d+2,"(0,4)<4>","3d-4.3d+ (0,5/2)<5/2>",3775,4,,,,,,,,,,,
69,Tm XLVII,Tm,XLVII,46,Thulium,V,[Ar].3d5,3d-4.3d+,"(0,5/2)<5/2>",3d4 5D<0>,3895,4,,,,,,,,,,,
69,Tm XLVIII,Tm,XLVIII,47,Thulium,Ti,[Ar].3d4,3d4,5D0,3d3 4F<3/2>,4075,4,,,,,,,,,,,
69,Tm XLIX,Tm,XLIX,48,Thulium,Sc,[Ar].3d3,3d3,4F<3/2>,3d2 3F<2>,4199,4,,,,,,,,,,,
69,Tm L,Tm,L,49,Thulium,Ca,[Ar].3d2,3d2,3F<2>,3d 2D<3/2>,4335,4,,,,,,,,,,,
69,Tm LI,Tm,LI,50,Thulium,K,[Ar].3d,3d,2D<3/2>,3p6 1S<0>,4461,4,,,,,,,,,,,
69,Tm LII,Tm,LII,51,Thulium,Ar,[Ne].3s2.3p6,3p6,1S0,3p5 2P*<3/2>,4812,4,,,,,,,,,,,
69,Tm LIII,Tm,LIII,52,Thulium,Cl,[Ne].3s2.3p5,3p5,2P*<3/2>,3p4 3P<2>,4922,4,,,,,,,,,,,
69,Tm LIV,Tm,LIV,53,Thulium,S,[Ne].3s2.3p4,3p4,3P<2>,3p3 2P*<3/2>,5044,5,,,,,,,,,,,
69,Tm LV,Tm,LV,54,Thulium,P,[Ne].3s2.3p3,3p3,2P*<3/2>,3p2 3P<0>,5157,5,,,,,,,,,,,
69,Tm LVI,Tm,LVI,55,Thulium,Si,[Ne].3s2.3p2,3p2,3P0,3p 2P*<1/2>,5527,5,,,,,,,,,,,
69,Tm LVII,Tm,LVII,56,Thulium,Al,[Ne].3s2.3p,3p,2P*<1/2>,3s2 1S<0>,5656,5,,,,,,,,,,,
69,Tm LVIII,Tm,LVIII,57,Thulium,Mg,[Ne].3s2,3s2,1S0,3s 2S<1/2>,5901,6,,,,,,,,,,,
69,Tm LIX,Tm,LIX,58,Thulium,Na,[Ne].3s,3s,2S<1/2>,2p6 1S<0>,6023,6,,,,,,,,,,,
69,Tm LX,Tm,LX,59,Thulium,Ne,1s2.2s2.2p6,2p6,1S0,2p5 2P*<3/2>,13347,7,,,,,,,,,,,
69,Tm LXI,Tm,LXI,60,Thulium,F,1s2.2s2.2p5,2p5,2P*<3/2>,2p4 3P<2>,13651,10,,,,,,,,,,,
69,Tm LXII,Tm,LXII,61,Thulium,O,1s2.2s2.2p4,2p4,3P<2>,"2p2<1/2>.2p<3/2> (0,3/2)*<3/2>",13988,12,,,,,,,,,,,
69,Tm LXIII,Tm,LXIII,62,Thulium,N,1s2.2s2.2p3,2p2<1/2>.2p<3/2>,"(0,3/2)*<3/2>",2p2 3P<0>,14300,15,,,,,,,,,,,
69,Tm LXIV,Tm,LXIV,63,Thulium,C,1s2.2s2.2p2,2p2,3P0,2p 2P*<1/2>,15663,19,,,,,,,,,,,
69,Tm LXV,Tm,LXV,64,Thulium,B,1s2.2s2.2p,2p,2P*<1/2>,2s2 1S<0>,16036,24,,,,,,,,,,,
69,Tm LXVI,Tm,LXVI,65,Thulium,Be,1s2.2s2,2s2,1S0,2s 2S<1/2>,16510,30,,,,,,,,,,,
69,Tm LXVII,Tm,LXVII,66,Thulium,Li,1s2.2s,1s2.2s,2S<1/2>,1s2 1S<0>,16814.34,0.14,,,,,,,,,,,
69,Tm LXVIII,Tm,LXVIII,67,Thulium,He,1s2,1s2,1S0,1s 2S<1/2>,67965.25,0.12,,,,,,,,,,,
69,Tm LXIX,Tm,LXIX,68,Thulium,H,1s,1s,2S<1/2>,,69387.45,0.09,,,,,,,,,,,
70,Yb I,Yb,I,0,Ytterbium,Yb,[Xe].4f14.6s2,4f14.6s2,1S0,6s 2S<1/2>,6.25416,0.000012,,,,,,,,,,,
70,Yb II,Yb,II,1,Ytterbium,Tm,[Xe].4f14.6s,4f14.6s,2S<1/2>,4f14 1S<0>,12.179185,0.000025,,,,,,,,,,,
70,Yb III,Yb,III,2,Ytterbium,Er,[Xe].4f14,4f14,1S0,4f13.5p6 2F*<7/2>,25.053,0.025,,,,,,,,,,,
70,Yb IV,Yb,IV,3,Ytterbium,Ho,[Xe].4f13,4f13,2F*<7/2>,4f12.5p6 3H<6>,43.61,0.04,,,,,,,,,,,
70,Yb V,Yb,V,4,Ytterbium,Dy,[Xe].4f12,4f12.5p6,3H<6>,4f12.5p5*,65.6,0.3,,,,,,,,,,,
70,Yb VI,Yb,VI,5,Ytterbium,Tb,[Cd].4f12.5p5,4f12.5p5,*,4f12.5p4,99,5,,,,,,,,,,,
70,Yb VII,Yb,VII,6,Ytterbium,Gd,[Cd].4f12.5p4,4f12.5p4,,4f12.5p3*,117,6,,,,,,,,,,,
70,Yb VIII,Yb,VIII,7,Ytterbium,Eu,[Cd].4f12.5p3,4f12.5p3,*,4f12.5p2,135,7,,,,,,,,,,,
70,Yb IX,Yb,IX,8,Ytterbium,Sm,[Cd].4f12.5p2,4f12.5p2,,4f12.5s2.5p*,163,8,,,,,,,,,,,
70,Yb X,Yb,X,9,Ytterbium,Pm,[Cd].4f12.5p,4f12.5s2.5p,*,4f12.5s2 3H<6>,182,9,,,,,,,,,,,
70,Yb XI,Yb,XI,10,Ytterbium,Nd,[Cd].4f12,4f12.5s2,3H<6>,4f11.5s2 4I*<15/2>,209,10,,,,,,,,,,,
70,Yb XII,Yb,XII,11,Ytterbium,Pr,[Cd].4f11,4f11.5s2,4I*<15/2>,4f10.5s2,244,12,,,,,,,,,,,
70,Yb XIII,Yb,XIII,12,Ytterbium,Ce,[Cd].4f10,4f10.5s2,,4f10.5s,279,14,,,,,,,,,,,
70,Yb XIV,Yb,XIV,13,Ytterbium,La,[Kr].4d10.4f10.5s,4f10.5s,,4f10,301,15,,,,,,,,,,,
70,Yb XV,Yb,XV,14,Ytterbium,Ba,[Kr].4d10.4f10,4f10,,4f9 6H*<15/2>,324,16,,,,,,,,,,,
70,Yb XVI,Yb,XVI,15,Ytterbium,Cs,[Kr].4d10.4f9,4f9,6H*<15/2>,4f8 7F<6>,360,19,,,,,,,,,,,
70,Yb XVII,Yb,XVII,16,Ytterbium,Xe,[Kr].4d10.4f8,4f8,7F<6>,4f7 8S*<7/2>,396,20,,,,,,,,,,,
70,Yb XVIII,Yb,XVIII,17,Ytterbium,I,[Kr].4d10.4f7,4f7,8S*<7/2>,4f6 7F<0>,431,21,,,,,,,,,,,
70,Yb XIX,Yb,XIX,18,Ytterbium,Te,[Kr].4d10.4f6,4f6,7F0,4f5 6H*<5/2>,469,24,,,,,,,,,,,
70,Yb XX,Yb,XX,19,Ytterbium,Sb,[Kr].4d10.4f5,4f5,6H*<5/2>,4f4 5I<4>,505,25,,,,,,,,,,,
70,Yb XXI,Yb,XXI,20,Ytterbium,Sn,[Kr].4d10.4f4,4f4,5I<4>,4f3 4I*<9/2>,540,30,,,,,,,,,,,
70,Yb XXII,Yb,XXII,21,Ytterbium,In,[Kr].4d10.4f3,4f3,4I*<9/2>,4f2 3H<4>,580,30,,,,,,,,,,,
70,Yb XXIII,Yb,XXIII,22,Ytterbium,Cd,[Kr].4d10.4f2,4f2,3H<4>,4f 2F*<5/2>,610,30,,,,,,,,,,,
70,Yb XXIV,Yb,XXIV,23,Ytterbium,Ag,[Kr].4d10.4f,4f,2F*<5/2>,4d10 1S<0>,651,6,,,,,,,,,,,
70,Yb XXV,Yb,XXV,24,Ytterbium,Pd,[Kr].4d10,4d10,1S0,4d9 2D<5/2>,882,4,,,,,,,,,,,
70,Yb XXVI,Yb,XXVI,25,Ytterbium,Rh,[Kr].4d9,4d9,2D<5/2>,4d8 3F<4>,924,4,,,,,,,,,,,
70,Yb XXVII,Yb,XXVII,26,Ytterbium,Ru,[Kr].4d8,4d8,3F<4>,4d7 4F<9/2>,971,4,,,,,,,,,,,
70,Yb XXVIII,Yb,XXVIII,27,Ytterbium,Tc,[Kr].4d7,4d7,4F<9/2>,4d6 5D<4>,1019,4,,,,,,,,,,,
70,Yb XXIX,Yb,XXIX,28,Ytterbium,Mo,[Kr].4d6,4d6,5D<4>,4d5 6S<5/2>,1065,4,,,,,,,,,,,
70,Yb XXX,Yb,XXX,29,Ytterbium,Nb,[Kr].4d5,4d5,6S<5/2>,4d4 5D<0>,1114,4,,,,,,,,,,,
70,Yb XXXI,Yb,XXXI,30,Ytterbium,Zr,[Kr].4d4,4d4,5D0,4d3 4F<3/2>,1175,4,,,,,,,,,,,
70,Yb XXXII,Yb,XXXII,31,Ytterbium,Y,[Kr].4d3,4d3,4F<3/2>,4d2 3F<2>,1224,4,,,,,,,,,,,
70,Yb XXXIII,Yb,XXXIII,32,Ytterbium,Sr,[Kr].4d2,4d2,3F<2>,4d 2D<3/2>,1275,4,,,,,,,,,,,
70,Yb XXXIV,Yb,XXXIV,33,Ytterbium,Rb,[Kr].4d,4d,2D<3/2>,4p6 1S<0>,1324,5,,,,,,,,,,,
70,Yb XXXV,Yb,XXXV,34,Ytterbium,Kr,[Ar].3d10.4s2.4p6,4p6,1S0,4p5 2P*<3/2>,1516,5,,,,,,,,,,,
70,Yb XXXVI,Yb,XXXVI,35,Ytterbium,Br,[Ar].3d10.4s2.4p5,4p5,2P*<3/2>,4p4 3P<2>,1564,5,,,,,,,,,,,
70,Yb XXXVII,Yb,XXXVII,36,Ytterbium,Se,[Ar].3d10.4s2.4p4,4p4,3P<2>,4p3 4S*<3/2>,1618,5,,,,,,,,,,,
70,Yb XXXVIII,Yb,XXXVIII,37,Ytterbium,As,[Ar].3d10.4s2.4p3,4p3,4S*<3/2>,4p2 3P<0>,1668,4,,,,,,,,,,,
70,Yb XXXIX,Yb,XXXIX,38,Ytterbium,Ge,[Ar].3d10.4s2.4p2,4p2,3P0,4p 2P*<1/2>,1789,4,,,,,,,,,,,
70,Yb XL,Yb,XL,39,Ytterbium,Ga,[Ar].3d10.4s2.4p,4p,2P*<1/2>,4s2 1S<0>,1845,4,,,,,,,,,,,
70,Yb XLI,Yb,XLI,40,Ytterbium,Zn,[Ar].3d10.4s2,4s2,1S0,4s 2S<1/2>,1978,4,,,,,,,,,,,
70,Yb XLII,Yb,XLII,41,Ytterbium,Cu,[Ar].3d10.4s,4s,2S<1/2>,3d10 1S<0>,2036.4,1,,,,,,,,,,,
70,Yb XLIII,Yb,XLIII,42,Ytterbium,Ni,[Ar].3d10,3d10,1S0,3d9 2D<5/2>,3443,4,,,,,,,,,,,
70,Yb XLIV,Yb,XLIV,43,Ytterbium,Co,[Ar].3d9,3d9,2D<5/2>,3d8 3F<4>,3555,4,,,,,,,,,,,
70,Yb XLV,Yb,XLV,44,Ytterbium,Fe,[Ar].3d8,3d8,3F<4>,3d7 4F<9/2>,3677,4,,,,,,,,,,,
70,Yb XLVI,Yb,XLVI,45,Ytterbium,Mn,[Ar].3d7,3d7,4F<9/2>,"3d-4.3d+2 (0,4)<4>",3805,4,,,,,,,,,,,
70,Yb XLVII,Yb,XLVII,46,Ytterbium,Cr,[Ar].3d6,3d-4.3d+2,"(0,4)<4>","3d-4.3d+ (0,5/2)<5/2>",3929,4,,,,,,,,,,,
70,Yb XLVIII,Yb,XLVIII,47,Ytterbium,V,[Ar].3d5,3d-4.3d+,"(0,5/2)<5/2>",3d4 5D<0>,4051,4,,,,,,,,,,,
70,Yb XLIX,Yb,XLIX,48,Ytterbium,Ti,[Ar].3d4,3d4,5D0,3d3 4F<3/2>,4238,4,,,,,,,,,,,
70,Yb L,Yb,L,49,Ytterbium,Sc,[Ar].3d3,3d3,4F<3/2>,3d2 3F<2>,4364,4,,,,,,,,,,,
70,Yb LI,Yb,LI,50,Ytterbium,Ca,[Ar].3d2,3d2,3F<2>,3d 2D<3/2>,4502,4,,,,,,,,,,,
70,Yb LII,Yb,LII,51,Ytterbium,K,[Ar].3d,3d,2D<3/2>,3p6 1S<0>,4630,4,,,,,,,,,,,
70,Yb LIII,Yb,LIII,52,Ytterbium,Ar,[Ne].3s2.3p6,3p6,1S0,3p5 2P*<3/2>,4988,4,,,,,,,,,,,
70,Yb LIV,Yb,LIV,53,Ytterbium,Cl,[Ne].3s2.3p5,3p5,2P*<3/2>,3p4 3P<2>,5101,5,,,,,,,,,,,
70,Yb LV,Yb,LV,54,Ytterbium,S,[Ne].3s2.3p4,3p4,3P<2>,3p3 2P*<3/2>,5224,5,,,,,,,,,,,
70,Yb LVI,Yb,LVI,55,Ytterbium,P,[Ne].3s2.3p3,3p3,2P*<3/2>,3p2 3P<0>,5339,5,,,,,,,,,,,
70,Yb LVII,Yb,LVII,56,Ytterbium,Si,[Ne].3s2.3p2,3p2,3P0,3p 2P*<1/2>,5731,5,,,,,,,,,,,
70,Yb LVIII,Yb,LVIII,57,Ytterbium,Al,[Ne].3s2.3p,3p,2P*<1/2>,3s2 1S<0>,5860,6,,,,,,,,,,,
70,Yb LIX,Yb,LIX,58,Ytterbium,Mg,[Ne].3s2,3s2,1S0,3s 2S<1/2>,6111,6,,,,,,,,,,,
70,Yb LX,Yb,LX,59,Ytterbium,Na,[Ne].3s,3s,2S<1/2>,2p6 1S<0>,6236,7,,,,,,,,,,,
70,Yb LXI,Yb,LXI,60,Ytterbium,Ne,1s2.2s2.2p6,2p6,1S0,2p5 2P*<3/2>,13784,10,,,,,,,,,,,
70,Yb LXII,Yb,LXII,61,Ytterbium,F,1s2.2s2.2p5,2p5,2P*<3/2>,2p4 3P<2>,14093,12,,,,,,,,,,,
70,Yb LXIII,Yb,LXIII,62,Ytterbium,O,1s2.2s2.2p4,2p4,3P<2>,"2p2<1/2>.2p<3/2> (0,3/2)*<3/2>",14435,15,,,,,,,,,,,
70,Yb LXIV,Yb,LXIV,63,Ytterbium,N,1s2.2s2.2p3,2p2<1/2>.2p<3/2>,"(0,3/2)*<3/2>",2p2 3P<0>,14752,19,,,,,,,,,,,
70,Yb LXV,Yb,LXV,64,Ytterbium,C,1s2.2s2.2p2,2p2,3P0,2p 2P*<1/2>,16191,24,,,,,,,,,,,
70,Yb LXVI,Yb,LXVI,65,Ytterbium,B,1s2.2s2.2p,2p,2P*<1/2>,2s2 1S<0>,16570,30,,,,,,,,,,,
70,Yb LXVII,Yb,LXVII,66,Ytterbium,Be,1s2.2s2,2s2,1S0,2s 2S<1/2>,17050,40,,,,,,,,,,,
70,Yb LXVIII,Yb,LXVIII,67,Ytterbium,Li,1s2.2s,1s2.2s,2S<1/2>,1s2 1S<0>,17365.44,0.15,,,,,,,,,,,
70,Yb LXIX,Yb,LXIX,68,Ytterbium,He,1s2,1s2,1S0,1s 2S<1/2>,70123.04,0.14,,,,,,,,,,,
70,Yb LXX,Yb,LXX,69,Ytterbium,H,1s,1s,2S<1/2>,,71574.63,0.1,,,,,,,,,,,
71,Lu I,Lu,I,0,Lutetium,Lu,[Xe].4f14.5d.6s2,5d.6s2,2D<3/2>,6s2 1S<0>,5.425871,0.000012,,,,,,,,,,,
71,Lu II,Lu,II,1,Lutetium,Yb,[Xe].4f14.6s2,6s2,1S0,6s 2S<1/2>,14.13,0.05,,,,,,,,,,,
71,Lu III,Lu,III,2,Lutetium,Tm,[Xe].4f14.6s,4f14.6s,2S<1/2>,4f14 1S<0>,20.9594,0.0012,,,,,,,,,,,
71,Lu IV,Lu,IV,3,Lutetium,Er,[Xe].4f14,4f14,1S0,4f13.5p6 2F*<7/2>,45.249,0.025,,,,,,,,,,,
71,Lu V,Lu,V,4,Lutetium,Ho,[Xe].4f13,4f13,2F*<7/2>,4f12.5p6 3H<6>,66.8,0.3,,,,,,,,,,,
71,Lu VI,Lu,VI,5,Lutetium,Dy,[Xe].4f12,4f12.5p6,3H<6>,4f13.5p4*,98,5,,,,,,,,,,,
71,Lu VII,Lu,VII,6,Lutetium,Tb,[Cd].4f13.5p4,4f13.5p4,*,4f13.5p3,117,6,,,,,,,,,,,
71,Lu VIII,Lu,VIII,7,Lutetium,Gd,[Cd].4f13.5p3,4f13.5p3,,4f13.5p2 4F*<7/2>,136,7,,,,,,,,,,,
71,Lu IX,Lu,IX,8,Lutetium,Eu,[Cd].4f13.5p2,4f13.5p2,4F*<7/2>,4f12.5p2,159,8,,,,,,,,,,,
71,Lu X,Lu,X,9,Lutetium,Sm,[Cd].4f12.5p2,4f12.5p2,,4f12.5s2.5p*,185,9,,,,,,,,,,,
71,Lu XI,Lu,XI,10,Lutetium,Pm,[Cd].4f12.5p,4f12.5s2.5p,*,4f12.5s2 3H<6>,205,10,,,,,,,,,,,
71,Lu XII,Lu,XII,11,Lutetium,Nd,[Cd].4f12,4f12.5s2,3H<6>,4f11.5s2 4I*<15/2>,238,12,,,,,,,,,,,
71,Lu XIII,Lu,XIII,12,Lutetium,Pr,[Cd].4f11,4f11.5s2,4I*<15/2>,4f10.5s2,276,14,,,,,,,,,,,
71,Lu XIV,Lu,XIV,13,Lutetium,Ce,[Cd].4f10,4f10.5s2,,4f10.5s,305,15,,,,,,,,,,,
71,Lu XV,Lu,XV,14,Lutetium,La,[Kr].4d10.4f10.5s,4f10.5s,,4f10,328,16,,,,,,,,,,,
71,Lu XVI,Lu,XVI,15,Lutetium,Ba,[Kr].4d10.4f10,4f10,,4f9 6H*<15/2>,361,19,,,,,,,,,,,
71,Lu XVII,Lu,XVII,16,Lutetium,Cs,[Kr].4d10.4f9,4f9,6H*<15/2>,4f8 7F<6>,399,20,,,,,,,,,,,
71,Lu XVIII,Lu,XVIII,17,Lutetium,Xe,[Kr].4d10.4f8,4f8,7F<6>,4f7 8S*<7/2>,438,22,,,,,,,,,,,
71,Lu XIX,Lu,XIX,18,Lutetium,I,[Kr].4d10.4f7,4f7,8S*<7/2>,4f6 7F<0>,476,24,,,,,,,,,,,
71,Lu XX,Lu,XX,19,Lutetium,Te,[Kr].4d10.4f6,4f6,7F0,4f5 6H*<5/2>,520,30,,,,,,,,,,,
71,Lu XXI,Lu,XXI,20,Lutetium,Sb,[Kr].4d10.4f5,4f5,6H*<5/2>,4f4 5I<4>,560,30,,,,,,,,,,,
71,Lu XXII,Lu,XXII,21,Lutetium,Sn,[Kr].4d10.4f4,4f4,5I<4>,4f3 4I*<9/2>,600,30,,,,,,,,,,,
71,Lu XXIII,Lu,XXIII,22,Lutetium,In,[Kr].4d10.4f3,4f3,4I*<9/2>,4f2 3H<4>,630,30,,,,,,,,,,,
71,Lu XXIV,Lu,XXIV,23,Lutetium,Cd,[Kr].4d10.4f2,4f2,3H<4>,4f 2F*<5/2>,670,30,,,,,,,,,,,
71,Lu XXV,Lu,XXV,24,Lutetium,Ag,[Kr].4d10.4f,4f,2F*<5/2>,4d10 1S<0>,713,7,,,,,,,,,,,
71,Lu XXVI,Lu,XXVI,25,Lutetium,Pd,[Kr].4d10,4d10,1S0,4d9 2D<5/2>,941,4,,,,,,,,,,,
71,Lu XXVII,Lu,XXVII,26,Lutetium,Rh,[Kr].4d9,4d9,2D<5/2>,4d8 3F<4>,985,4,,,,,,,,,,,
71,Lu XXVIII,Lu,XXVIII,27,Lutetium,Ru,[Kr].4d8,4d8,3F<4>,4d7 4F<9/2>,1032,4,,,,,,,,,,,
71,Lu XXIX,Lu,XXIX,28,Lutetium,Tc,[Kr].4d7,4d7,4F<9/2>,4d6 5D<4>,1081,4,,,,,,,,,,,
71,Lu XXX,Lu,XXX,29,Lutetium,Mo,[Kr].4d6,4d6,5D<4>,4d5 6S<5/2>,1130,4,,,,,,,,,,,