At. num,Sp. Name,Element,Valence,Ion Charge,El. Name,Isoel. Seq.,Ground Shells (a),Ground Config.,Ground Level,Ionized Level,Ionization Energy (b) (eV),Uncertainty (c) (eV),,,,,,,,,,,
88,Ra XLII,Ra,XLII,41,Radium,Ag,[Kr].4d10.4f,4f,2F*<5/2>,4d10 1S<0>,1880,100,,,,,,,,,,,
88,Ra XLIII,Ra,XLIII,42,Radium,Pd,[Kr].4d10,4d10,1S0,4d9 2D<5/2>,2208,4,,,,,,,,,,,
88,Ra XLIV,Ra,XLIV,43,Radium,Rh,[Kr].4d9,4d9,2D<5/2>,4d8 3F<4>,2271,4,,,,,,,,,,,
88,Ra XLV,Ra,XLV,44,Radium,Ru,[Kr].4d8,4d8,3F<4>,4d7 4F<9/2>,2338,4,,,,,,,,,,,
88,Ra XLVI,Ra,XLVI,45,Radium,Tc,[Kr].4d7,4d7,4F<9/2>,4d6 5D<4>,2409,4,,,,,,,,,,,
88,Ra XLVII,Ra,XLVII,46,Radium,Mo,[Kr].4d6,4d6,5D<4>,"4d-4.4d+ (0,5/2)<5/2>",2477,4,,,,,,,,,,,
88,Ra XLVIII,Ra,XLVIII,47,Radium,Nb,[Kr].4d5,4d-4.4d+,"(0,5/2)<5/2>",4d4 5D<0>,2544,4,,,,,,,,,,,
88,Ra XLIX,Ra,XLIX,48,Radium,Zr,[Kr].4d4,4d4,5D0,4d3 4F<3/2>,2662,4,,,,,,,,,,,
88,Ra L,Ra,L,49,Radium,Y,[Kr].4d3,4d3,4F<3/2>,4d2 3F<2>,2731,4,,,,,,,,,,,
88,Ra LI,Ra,LI,50,Radium,Sr,[Kr].4d2,4d2,3F<2>,4d 2D<3/2>,2806,4,,,,,,,,,,,
88,Ra LII,Ra,LII,51,Radium,Rb,[Kr].4d,4d,2D<3/2>,4p6 1S<0>,2876,4,,,,,,,,,,,
88,Ra LIII,Ra,LIII,52,Radium,Kr,[Ar].3d10.4s2.4p6,4p6,1S0,4p5 2P*<3/2>,3155,4,,,,,,,,,,,
88,Ra LIV,Ra,LIV,53,Radium,Br,[Ar].3d10.4s2.4p5,4p5,2P*<3/2>,4p4 3P<2>,3224,5,,,,,,,,,,,
88,Ra LV,Ra,LV,54,Radium,Se,[Ar].3d10.4s2.4p4,4p4,3P<2>,"4p-2.4p+ (0,3/2)*<3/2>",3298,5,,,,,,,,,,,
88,Ra LVI,Ra,LVI,55,Radium,As,[Ar].3d10.4s2.4p3,4p-2.4p+,"(0,3/2)*<3/2>",4p2 3P<0>,3368,5,,,,,,,,,,,
88,Ra LVII,Ra,LVII,56,Radium,Ge,[Ar].3d10.4s2.4p2,4p2,3P0,4p 2P*<1/2>,3682,5,,,,,,,,,,,
88,Ra LVIII,Ra,LVIII,57,Radium,Ga,[Ar].3d10.4s2.4p,4p,2P*<1/2>,4s2 1S<0>,3762,6,,,,,,,,,,,
88,Ra LIX,Ra,LIX,58,Radium,Zn,[Ar].3d10.4s2,4s2,1S0,4s 2S<1/2>,3959,6,,,,,,,,,,,
88,Ra LX,Ra,LX,59,Radium,Cu,[Ar].3d10.4s,4s,2S<1/2>,3d10 1S<0>,4040,4,,,,,,,,,,,
88,Ra LXI,Ra,LXI,60,Radium,Ni,[Ar].3d10,3d10,1S0,3d9 2D<5/2>,6565,10,,,,,,,,,,,
88,Ra LXII,Ra,LXII,61,Radium,Co,[Ar].3d9,3d9,2D<5/2>,3d8 3F<4>,6718,12,,,,,,,,,,,
88,Ra LXIII,Ra,LXIII,62,Radium,Fe,[Ar].3d8,3d8,3F<4>,3d7 4F<9/2>,6881,15,,,,,,,,,,,
88,Ra LXIV,Ra,LXIV,63,Radium,Mn,[Ar].3d7,3d7,4F<9/2>,"3d-4.3d+2 (0,4)<4>",7056,19,,,,,,,,,,,
88,Ra LXV,Ra,LXV,64,Radium,Cr,[Ar].3d6,3d-4.3d+2,"(0,4)<4>","3d-4.3d+ (0,5/2)<5/2>",7222,24,,,,,,,,,,,
88,Ra LXVI,Ra,LXVI,65,Radium,V,[Ar].3d5,3d-4.3d+,"(0,5/2)<5/2>",3d4 5D<0>,7380,30,,,,,,,,,,,
88,Ra LXVII,Ra,LXVII,66,Radium,Ti,[Ar].3d4,3d4,5D0,3d3 4F<3/2>,7720,40,,,,,,,,,,,
88,Ra LXVIII,Ra,LXVIII,67,Radium,Sc,[Ar].3d3,3d3,4F<3/2>,3d2 3F<2>,7890,40,,,,,,,,,,,
88,Ra LXIX,Ra,LXIX,68,Radium,Ca,[Ar].3d2,3d2,3F<2>,3d 2D<3/2>,8080,50,,,,,,,,,,,
88,Ra LXX,Ra,LXX,69,Radium,K,[Ar].3d,3d,2D<3/2>,3p6 1S<0>,8250,50,,,,,,,,,,,
88,Ra LXXI,Ra,LXXI,70,Radium,Ar,[Ne].3s2.3p6,3p6,1S0,3p5 2P*<3/2>,8730,60,,,,,,,,,,,
88,Ra LXXII,Ra,LXXII,71,Radium,Cl,[Ne].3s2.3p5,3p5,2P*<3/2>,3p4 3P<2>,8880,60,,,,,,,,,,,
88,Ra LXXIII,Ra,LXXIII,72,Radium,S,[Ne].3s2.3p4,3p4,3P<2>,3p3 2P*<3/2>,9040,70,,,,,,,,,,,
88,Ra LXXIV,Ra,LXXIV,73,Radium,P,[Ne].3s2.3p3,3p3,2P*<3/2>,3p2 3P<0>,9200,90,,,,,,,,,,,
88,Ra LXXV,Ra,LXXV,74,Radium,Si,[Ne].3s2.3p2,3p2,3P0,3p 2P*<1/2>,10190,90,,,,,,,,,,,
88,Ra LXXVI,Ra,LXXVI,75,Radium,Al,[Ne].3s2.3p,3p,2P*<1/2>,3s2 1S<0>,10360,100,,,,,,,,,,,
88,Ra LXXVII,Ra,LXXVII,76,Radium,Mg,[Ne].3s2,3s2,1S0,3s 2S<1/2>,10720,110,,,,,,,,,,,
88,Ra LXXVIII,Ra,LXXVIII,77,Radium,Na,[Ne].3s,3s,2S<1/2>,2p6 1S<0>,10890,120,,,,,,,,,,,
88,Ra LXXIX,Ra,LXXIX,78,Radium,Ne,1s2.2s2.2p6,2p6,1S0,2p5 2P*<3/2>,22900,120,,,,,,,,,,,
88,Ra LXXX,Ra,LXXX,79,Radium,F,1s2.2s2.2p5,2p5,2P*<3/2>,2p4 3P<2>,23300,140,,,,,,,,,,,
88,Ra LXXXI,Ra,LXXXI,80,Radium,O,1s2.2s2.2p4,2p4,3P<2>,"2p2<1/2>.2p<3/2> (0,3/2)*<3/2>",23750,150,,,,,,,,,,,
88,Ra LXXXII,Ra,LXXXII,81,Radium,N,1s2.2s2.2p3,2p2<1/2>.2p<3/2>,"(0,3/2)*<3/2>",2p2 3P<0>,24160,160,,,,,,,,,,,
88,Ra LXXXIII,Ra,LXXXIII,82,Radium,C,1s2.2s2.2p2,2p2,3P0,2p 2P*<1/2>,27830,170,,,,,,,,,,,
88,Ra LXXXIV,Ra,LXXXIV,83,Radium,B,1s2.2s2.2p,2p,2P*<1/2>,2s2 1S<0>,28370,190,,,,,,,,,,,
88,Ra LXXXV,Ra,LXXXV,84,Radium,Be,1s2.2s2,2s2,1S0,2s 2S<1/2>,29050,200,,,,,,,,,,,
88,Ra LXXXVI,Ra,LXXXVI,85,Radium,Li,1s2.2s,1s2.2s,2S<1/2>,1s2 1S<0>,29479.8,0.5,,,,,,,,,,,
88,Ra LXXXVII,Ra,LXXXVII,86,Radium,He,1s2,1s2,1S0,1s 2S<1/2>,116853.5,0.5,,,,,,,,,,,
88,Ra LXXXVIII,Ra,LXXXVIII,87,Radium,H,1s,1s,2S<1/2>,,118929.5,1.1,,,,,,,,,,,
89,Ac I,Ac,I,0,Actinium,Ac,[Rn].6d.7s2,6d.7s2,2D<3/2>,6p6.7s2 1S<0>,5.380235,0.000012,,,,,,,,,,,
89,Ac II,Ac,II,1,Actinium,Ra,[Rn].7s2,7s2,1S0,6p6.7s 2S<1/2>,11.75,0.03,,,,,,,,,,,
89,Ac III,Ac,III,2,Actinium,Fr,[Rn].7s,7s,2S<1/2>,6p6 1S<0>,17.436,0.006,,,,,,,,,,,
89,Ac IV,Ac,IV,3,Actinium,Rn,[Hg].6p6,6p6,1S0,6p5 2P*<3/2>,44.8,1.4,,,,,,,,,,,
89,Ac V,Ac,V,4,Actinium,At,[Hg].6p5,6p5,2P*<3/2>,6p4 3P<2>,55,1.9,,,,,,,,,,,
89,Ac VI,Ac,VI,5,Actinium,Po,[Hg].6p4,6p4,3P<2>,6p3 4S*<3/2>,67,2,,,,,,,,,,,
89,Ac VII,Ac,VII,6,Actinium,Bi,[Hg].6p3,6p3,4S*<3/2>,6p2 3P<0>,79,2,,,,,,,,,,,
89,Ac VIII,Ac,VIII,7,Actinium,Pb,[Hg].6p2,6p2,3P0,6p 2P*<1/2>,98.9,2.1,,,,,,,,,,,
89,Ac IX,Ac,IX,8,Actinium,Tl,[Hg].6p,6p,2P*<1/2>,6s2 1S<0>,113.9,2.2,,,,,,,,,,,
89,Ac X,Ac,X,9,Actinium,Hg,[Xe].4f14.5d10.6s2,6s2,1S0,6s 2S<1/2>,143.9,2.2,,,,,,,,,,,
89,Ac XI,Ac,XI,10,Actinium,Au,[Xe].4f14.5d10.6s,6s,2S<1/2>,5d10 1S<0>,161.1,2.4,,,,,,,,,,,
89,Ac XII,Ac,XII,11,Actinium,Pt,[Xe].4f14.5d10,5d10,1S0,5d9 2D<5/2>,233,2.5,,,,,,,,,,,
89,Ac XIII,Ac,XIII,12,Actinium,Ir,[Xe].4f14.5d9,5d9,2D<5/2>,5d8 3F<4>,255,3,,,,,,,,,,,
89,Ac XIV,Ac,XIV,13,Actinium,Os,[Xe].4f14.5d8,5d8,3F<4>,5d7 4F<9/2>,279,3,,,,,,,,,,,
89,Ac XV,Ac,XV,14,Actinium,Re,[Xe].4f14.5d7,5d7,4F<9/2>,5d6 5D<4>,305,3,,,,,,,,,,,
89,Ac XVI,Ac,XVI,15,Actinium,W,[Xe].4f14.5d6,5d6,5D<4>,5d5 6S<5/2>,330,3,,,,,,,,,,,
89,Ac XVII,Ac,XVII,16,Actinium,Ta,[Xe].4f14.5d5,5d5,6S<5/2>,5d4 5D<0>,355,3,,,,,,,,,,,
89,Ac XVIII,Ac,XVIII,17,Actinium,Hf,[Xe].4f14.5d4,5d4,5D0,5d3 4F<3/2>,390,3,,,,,,,,,,,
89,Ac XIX,Ac,XIX,18,Actinium,Lu,[Xe].4f14.5d3,5d3,4F<3/2>,5d2 3F<2>,416,3,,,,,,,,,,,
89,Ac XX,Ac,XX,19,Actinium,Yb,[Xe].4f14.5d2,5d2,3F<2>,5d 2D<3/2>,444,4,,,,,,,,,,,
89,Ac XXI,Ac,XXI,20,Actinium,Tm,[Xe].4f14.5d,5d,2D<3/2>,4f14 1S<0>,470,4,,,,,,,,,,,
89,Ac XXII,Ac,XXII,21,Actinium,Er,[Xe].4f14,4f14,1S0,4f14.5p5 2P*<3/2>,610,30,,,,,,,,,,,
89,Ac XXIII,Ac,XXIII,22,Actinium,Ho,[Cd].4f14.5p5,4f14.5p5,2P*<3/2>,4f14.5p4 3P<2>,640,30,,,,,,,,,,,
89,Ac XXIV,Ac,XXIV,23,Actinium,Dy,[Cd].4f14.5p4,4f14.5p4,3P<2>,4f14.5p3 2P*<3/2>,670,30,,,,,,,,,,,
89,Ac XXV,Ac,XXV,24,Actinium,Tb,[Cd].4f14.5p3,4f14.5p3,2P*<3/2>,4f14.5p2 3P<0>,710,40,,,,,,,,,,,
89,Ac XXVI,Ac,XXVI,25,Actinium,Gd,[Cd].4f14.5p2,4f14.5p2,3P0,4f14.5p 2P*<1/2>,780,40,,,,,,,,,,,
89,Ac XXVII,Ac,XXVII,26,Actinium,Eu,[Cd].4f14.5p,4f14.5p,2P*<1/2>,4f14 1S<0>,820,40,,,,,,,,,,,
89,Ac XXVIII,Ac,XXVIII,27,Actinium,Sm,[Cd].4f14,4f14,1S0,4f14.5s 2S<1/2>,920,50,,,,,,,,,,,
89,Ac XXIX,Ac,XXIX,28,Actinium,Pm,[Kr].4d10.4f14.5s,4f14.5s,2S<1/2>,4f14 1S<0>,950,50,,,,,,,,,,,
89,Ac XXX,Ac,XXX,29,Actinium,Nd,[Kr].4d10.4f14,4f14,1S0,4f13 2F*<7/2>,1030,50,,,,,,,,,,,
89,Ac XXXI,Ac,XXXI,30,Actinium,Pr,[Kr].4d10.4f13,4f13,2F*<7/2>,4f12,1100,50,,,,,,,,,,,
89,Ac XXXII,Ac,XXXII,31,Actinium,Ce,[Kr].4d10.4f12,4f12,,4f11 4I*<15/2>,1170,60,,,,,,,,,,,
89,Ac XXXIII,Ac,XXXIII,32,Actinium,La,[Kr].4d10.4f11,4f11,4I*<15/2>,4f10 5I<8>,1240,60,,,,,,,,,,,
89,Ac XXXIV,Ac,XXXIV,33,Actinium,Ba,[Kr].4d10.4f10,4f10,5I<8>,4f9 6H*<15/2>,1310,70,,,,,,,,,,,
89,Ac XXXV,Ac,XXXV,34,Actinium,Cs,[Kr].4d10.4f9,4f9,6H*<15/2>,4f8 7F<6>,1380,70,,,,,,,,,,,
89,Ac XXXVI,Ac,XXXVI,35,Actinium,Xe,[Kr].4d10.4f8,4f8,7F<6>,4f7 8S*<7/2>,1460,70,,,,,,,,,,,
89,Ac XXXVII,Ac,XXXVII,36,Actinium,I,[Kr].4d10.4f7,4f7,8S*<7/2>,4f6 7F<0>,1530,80,,,,,,,,,,,
89,Ac XXXVIII,Ac,XXXVIII,37,Actinium,Te,[Kr].4d10.4f6,4f6,7F0,4f5 6H*<5/2>,1610,80,,,,,,,,,,,
89,Ac XXXIX,Ac,XXXIX,38,Actinium,Sb,[Kr].4d10.4f5,4f5,6H*<5/2>,4f4 5I<4>,1680,80,,,,,,,,,,,
89,Ac XL,Ac,XL,39,Actinium,Sn,[Kr].4d10.4f4,4f4,5I<4>,4f3 4I*<9/2>,1750,90,,,,,,,,,,,
89,Ac XLI,Ac,XLI,40,Actinium,In,[Kr].4d10.4f3,4f3,4I*<9/2>,4f2 3H<4>,1820,90,,,,,,,,,,,
89,Ac XLII,Ac,XLII,41,Actinium,Cd,[Kr].4d10.4f2,4f2,3H<4>,4f 2F*<5/2>,1900,100,,,,,,,,,,,
89,Ac XLIII,Ac,XLIII,42,Actinium,Ag,[Kr].4d10.4f,4f,2F*<5/2>,4d10 1S<0>,1970,100,,,,,,,,,,,
89,Ac XLIV,Ac,XLIV,43,Actinium,Pd,[Kr].4d10,4d10,1S0,4d9 2D<5/2>,2298,4,,,,,,,,,,,
89,Ac XLV,Ac,XLV,44,Actinium,Rh,[Kr].4d9,4d9,2D<5/2>,4d8 3F<4>,2362,4,,,,,,,,,,,
89,Ac XLVI,Ac,XLVI,45,Actinium,Ru,[Kr].4d8,4d8,3F<4>,4d7 4F<9/2>,2430,4,,,,,,,,,,,
89,Ac XLVII,Ac,XLVII,46,Actinium,Tc,[Kr].4d7,4d7,4F<9/2>,4d6 5D<4>,2503,4,,,,,,,,,,,
89,Ac XLVIII,Ac,XLVIII,47,Actinium,Mo,[Kr].4d6,4d6,5D<4>,"4d-4.4d+ (0,5/2)<5/2>",2572,4,,,,,,,,,,,
89,Ac XLIX,Ac,XLIX,48,Actinium,Nb,[Kr].4d5,4d-4.4d+,"(0,5/2)<5/2>",4d4 5D<0>,2639,4,,,,,,,,,,,
89,Ac L,Ac,L,49,Actinium,Zr,[Kr].4d4,4d4,5D0,4d3 4F<3/2>,2762,4,,,,,,,,,,,
89,Ac LI,Ac,LI,50,Actinium,Y,[Kr].4d3,4d3,4F<3/2>,4d2 3F<2>,2833,4,,,,,,,,,,,
89,Ac LII,Ac,LII,51,Actinium,Sr,[Kr].4d2,4d2,3F<2>,4d 2D<3/2>,2908,4,,,,,,,,,,,
89,Ac LIII,Ac,LIII,52,Actinium,Rb,[Kr].4d,4d,2D<3/2>,4p6 1S<0>,2980,4,,,,,,,,,,,
89,Ac LIV,Ac,LIV,53,Actinium,Kr,[Ar].3d10.4s2.4p6,4p6,1S0,4p5 2P*<3/2>,3264,5,,,,,,,,,,,
89,Ac LV,Ac,LV,54,Actinium,Br,[Ar].3d10.4s2.4p5,4p5,2P*<3/2>,4p4 3P<2>,3334,5,,,,,,,,,,,
89,Ac LVI,Ac,LVI,55,Actinium,Se,[Ar].3d10.4s2.4p4,4p4,3P<2>,"4p-2.4p+ (0,3/2)*<3/2>",3409,5,,,,,,,,,,,
89,Ac LVII,Ac,LVII,56,Actinium,As,[Ar].3d10.4s2.4p3,4p-2.4p+,"(0,3/2)*<3/2>",4p2 3P<0>,3479,5,,,,,,,,,,,
89,Ac LVIII,Ac,LVIII,57,Actinium,Ge,[Ar].3d10.4s2.4p2,4p2,3P0,4p 2P*<1/2>,3811,6,,,,,,,,,,,
89,Ac LIX,Ac,LIX,58,Actinium,Ga,[Ar].3d10.4s2.4p,4p,2P*<1/2>,4s2 1S<0>,3893,6,,,,,,,,,,,
89,Ac LX,Ac,LX,59,Actinium,Zn,[Ar].3d10.4s2,4s2,1S0,4s 2S<1/2>,4093,7,,,,,,,,,,,
89,Ac LXI,Ac,LXI,60,Actinium,Cu,[Ar].3d10.4s,4s,2S<1/2>,3d10 1S<0>,4175,4,,,,,,,,,,,
89,Ac LXII,Ac,LXII,61,Actinium,Ni,[Ar].3d10,3d10,1S0,3d9 2D<5/2>,6767,12,,,,,,,,,,,
89,Ac LXIII,Ac,LXIII,62,Actinium,Co,[Ar].3d9,3d9,2D<5/2>,3d8 3F<4>,6923,15,,,,,,,,,,,
89,Ac LXIV,Ac,LXIV,63,Actinium,Fe,[Ar].3d8,3d8,3F<4>,3d7 4F<9/2>,7088,19,,,,,,,,,,,
89,Ac LXV,Ac,LXV,64,Actinium,Mn,[Ar].3d7,3d7,4F<9/2>,"3d-4.3d+2 (0,4)<4>",7265,24,,,,,,,,,,,
89,Ac LXVI,Ac,LXVI,65,Actinium,Cr,[Ar].3d6,3d-4.3d+2,"(0,4)<4>","3d-4.3d+ (0,5/2)<5/2>",7430,30,,,,,,,,,,,
89,Ac LXVII,Ac,LXVII,66,Actinium,V,[Ar].3d5,3d-4.3d+,"(0,5/2)<5/2>",3d4 5D<0>,7600,40,,,,,,,,,,,
89,Ac LXVIII,Ac,LXVIII,67,Actinium,Ti,[Ar].3d4,3d4,5D0,3d3 4F<3/2>,7950,40,,,,,,,,,,,
89,Ac LXIX,Ac,LXIX,68,Actinium,Sc,[Ar].3d3,3d3,4F<3/2>,3d2 3F<2>,8120,50,,,,,,,,,,,
89,Ac LXX,Ac,LXX,69,Actinium,Ca,[Ar].3d2,3d2,3F<2>,3d 2D<3/2>,8310,50,,,,,,,,,,,
89,Ac LXXI,Ac,LXXI,70,Actinium,K,[Ar].3d,3d,2D<3/2>,3p6 1S<0>,8480,60,,,,,,,,,,,
89,Ac LXXII,Ac,LXXII,71,Actinium,Ar,[Ne].3s2.3p6,3p6,1S0,3p5 2P*<3/2>,8970,60,,,,,,,,,,,
89,Ac LXXIII,Ac,LXXIII,72,Actinium,Cl,[Ne].3s2.3p5,3p5,2P*<3/2>,3p4 3P<2>,9120,70,,,,,,,,,,,
89,Ac LXXIV,Ac,LXXIV,73,Actinium,S,[Ne].3s2.3p4,3p4,3P<2>,3p3 2P*<3/2>,9290,90,,,,,,,,,,,
89,Ac LXXV,Ac,LXXV,74,Actinium,P,[Ne].3s2.3p3,3p3,2P*<3/2>,3p2 3P<0>,9440,90,,,,,,,,,,,
89,Ac LXXVI,Ac,LXXVI,75,Actinium,Si,[Ne].3s2.3p2,3p2,3P0,3p 2P*<1/2>,10480,100,,,,,,,,,,,
89,Ac LXXVII,Ac,LXXVII,76,Actinium,Al,[Ne].3s2.3p,3p,2P*<1/2>,3s2 1S<0>,10660,110,,,,,,,,,,,
89,Ac LXXVIII,Ac,LXXVIII,77,Actinium,Mg,[Ne].3s2,3s2,1S0,3s 2S<1/2>,11030,120,,,,,,,,,,,
89,Ac LXXIX,Ac,LXXIX,78,Actinium,Na,[Ne].3s,3s,2S<1/2>,2p6 1S<0>,11200,120,,,,,,,,,,,
89,Ac LXXX,Ac,LXXX,79,Actinium,Ne,1s2.2s2.2p6,2p6,1S0,2p5 2P*<3/2>,23480,140,,,,,,,,,,,
89,Ac LXXXI,Ac,LXXXI,80,Actinium,F,1s2.2s2.2p5,2p5,2P*<3/2>,2p4 3P<2>,23890,150,,,,,,,,,,,
89,Ac LXXXII,Ac,LXXXII,81,Actinium,O,1s2.2s2.2p4,2p4,3P<2>,"2p2<1/2>.2p<3/2> (0,3/2)*<3/2>",24340,160,,,,,,,,,,,
89,Ac LXXXIII,Ac,LXXXIII,82,Actinium,N,1s2.2s2.2p3,2p2<1/2>.2p<3/2>,"(0,3/2)*<3/2>",2p2 3P<0>,24760,170,,,,,,,,,,,
89,Ac LXXXIV,Ac,LXXXIV,83,Actinium,C,1s2.2s2.2p2,2p2,3P0,2p 2P*<1/2>,28610,190,,,,,,,,,,,
89,Ac LXXXV,Ac,LXXXV,84,Actinium,B,1s2.2s2.2p,2p,2P*<1/2>,2s2 1S<0>,29160,200,,,,,,,,,,,
89,Ac LXXXVI,Ac,LXXXVI,85,Actinium,Be,1s2.2s2,2s2,1S0,2s 2S<1/2>,29850,220,,,,,,,,,,,
89,Ac LXXXVII,Ac,LXXXVII,86,Actinium,Li,1s2.2s,1s2.2s,2S<1/2>,1s2 1S<0>,30293.1,0.5,,,,,,,,,,,
89,Ac LXXXVIII,Ac,LXXXVIII,87,Actinium,He,1s2,1s2,1S0,1s 2S<1/2>,119945.7,0.6,,,,,,,,,,,
89,Ac LXXXIX,Ac,LXXXIX,88,Actinium,H,1s,1s,2S<1/2>,,122063.1,2.2,,,,,,,,,,,
90,Th I,Th,I,0,Thorium,Th,[Rn].6d2.7s2,6d2.7s2,3F<2>,6d.7s2 2D<3/2>,6.3067,0.00025,,,,,,,,,,,
90,Th II,Th,II,1,Thorium,Ac,[Rn].6d.7s2,6d.7s2,2D<3/2>,5f.6d 3H*<4>,12.1,0.2,,,,,,,,,,,
90,Th III,Th,III,2,Thorium,Ra,[Rn].5f.6d,5f.6d,3H*<4>,5f.6p6 2F*<5/2>,18.32,0.05,,,,,,,,,,,
90,Th IV,Th,IV,3,Thorium,Fr,[Rn].5f,5f.6p6,2F*<5/2>,6p6 1S<0>,28.648,0.025,,,,,,,,,,,
90,Th V,Th,V,4,Thorium,Rn,[Hg].6p6,6p6,1S0,6p5 2P*<3/2>,58,1.9,,,,,,,,,,,
90,Th VI,Th,VI,5,Thorium,At,[Hg].6p5,6p5,2P*<3/2>,6p4 3P<2>,69.1,2,,,,,,,,,,,
90,Th VII,Th,VII,6,Thorium,Po,[Hg].6p4,6p4,3P<2>,6p3 4S*<3/2>,82,2,,,,,,,,,,,
90,Th VIII,Th,VIII,7,Thorium,Bi,[Hg].6p3,6p3,4S*<3/2>,6p2 3P<0>,95,2.1,,,,,,,,,,,
90,Th IX,Th,IX,8,Thorium,Pb,[Hg].6p2,6p2,3P0,6p 2P*<1/2>,118,2.2,,,,,,,,,,,
90,Th X,Th,X,9,Thorium,Tl,[Hg].6p,6p,2P*<1/2>,6s2 1S<0>,133,2.2,,,,,,,,,,,
90,Th XI,Th,XI,10,Thorium,Hg,[Xe].4f14.5d10.6s2,6s2,1S0,6s 2S<1/2>,165,2.4,,,,,,,,,,,
90,Th XII,Th,XII,11,Thorium,Au,[Xe].4f14.5d10.6s,6s,2S<1/2>,5d10 1S<0>,181,2.5,,,,,,,,,,,
90,Th XIII,Th,XIII,12,Thorium,Pt,[Xe].4f14.5d10,5d10,1S0,5d9 2D<5/2>,262,3,,,,,,,,,,,
90,Th XIV,Th,XIV,13,Thorium,Ir,[Xe].4f14.5d9,5d9,2D<5/2>,5d8 3F<4>,285,3,,,,,,,,,,,
90,Th XV,Th,XV,14,Thorium,Os,[Xe].4f14.5d8,5d8,3F<4>,5d7 4F<9/2>,310,3,,,,,,,,,,,
90,Th XVI,Th,XVI,15,Thorium,Re,[Xe].4f14.5d7,5d7,4F<9/2>,5d6 5D<4>,336,3,,,,,,,,,,,
90,Th XVII,Th,XVII,16,Thorium,W,[Xe].4f14.5d6,5d6,5D<4>,5d5 6S<5/2>,362,3,,,,,,,,,,,
90,Th XVIII,Th,XVIII,17,Thorium,Ta,[Xe].4f14.5d5,5d5,6S<5/2>,5d4 5D<0>,389,3,,,,,,,,,,,
90,Th XIX,Th,XIX,18,Thorium,Hf,[Xe].4f14.5d4,5d4,5D0,5d3 4F<3/2>,424,3,,,,,,,,,,,
90,Th XX,Th,XX,19,Thorium,Lu,[Xe].4f14.5d3,5d3,4F<3/2>,5d2 3F<2>,451,4,,,,,,,,,,,
90,Th XXI,Th,XXI,20,Thorium,Yb,[Xe].4f14.5d2,5d2,3F<2>,5d 2D<3/2>,480,4,,,,,,,,,,,
90,Th XXII,Th,XXII,21,Thorium,Tm,[Xe].4f14.5d,5d,2D<3/2>,4f14 1S<0>,508,4,,,,,,,,,,,
90,Th XXIII,Th,XXIII,22,Thorium,Er,[Xe].4f14,4f14,1S0,4f14.5p5 2P*<3/2>,650,40,,,,,,,,,,,
90,Th XXIV,Th,XXIV,23,Thorium,Ho,[Cd].4f14.5p5,4f14.5p5,2P*<3/2>,4f14.5p4 3P<2>,680,30,,,,,,,,,,,
90,Th XXV,Th,XXV,24,Thorium,Dy,[Cd].4f14.5p4,4f14.5p4,3P<2>,4f14.5p3 2P*<3/2>,720,40,,,,,,,,,,,
90,Th XXVI,Th,XXVI,25,Thorium,Tb,[Cd].4f14.5p3,4f14.5p3,2P*<3/2>,4f14.5p2 3P<0>,750,40,,,,,,,,,,,
90,Th XXVII,Th,XXVII,26,Thorium,Gd,[Cd].4f14.5p2,4f14.5p2,3P0,4f14.5p 2P*<1/2>,830,40,,,,,,,,,,,
90,Th XXVIII,Th,XXVIII,27,Thorium,Eu,[Cd].4f14.5p,4f14.5p,2P*<1/2>,4f14 1S<0>,870,40,,,,,,,,,,,
90,Th XXIX,Th,XXIX,28,Thorium,Sm,[Cd].4f14,4f14,1S0,4f14.5s 2S<1/2>,970,50,,,,,,,,,,,
90,Th XXX,Th,XXX,29,Thorium,Pm,[Kr].4d10.4f14.5s,4f14.5s,2S<1/2>,4f14 1S<0>,1010,50,,,,,,,,,,,
90,Th XXXI,Th,XXXI,30,Thorium,Nd,[Kr].4d10.4f14,4f14,1S0,4f13 2F*<7/2>,1090,50,,,,,,,,,,,
90,Th XXXII,Th,XXXII,31,Thorium,Pr,[Kr].4d10.4f13,4f13,2F*<7/2>,4f12,1160,60,,,,,,,,,,,
90,Th XXXIII,Th,XXXIII,32,Thorium,Ce,[Kr].4d10.4f12,4f12,,4f11 4I*<15/2>,1240,60,,,,,,,,,,,
90,Th XXXIV,Th,XXXIV,33,Thorium,La,[Kr].4d10.4f11,4f11,4I*<15/2>,4f10 5I<8>,1310,60,,,,,,,,,,,
90,Th XXXV,Th,XXXV,34,Thorium,Ba,[Kr].4d10.4f10,4f10,5I<8>,4f9 6H*<15/2>,1380,70,,,,,,,,,,,
90,Th XXXVI,Th,XXXVI,35,Thorium,Cs,[Kr].4d10.4f9,4f9,6H*<15/2>,4f8 7F<6>,1460,70,,,,,,,,,,,
90,Th XXXVII,Th,XXXVII,36,Thorium,Xe,[Kr].4d10.4f8,4f8,7F<6>,4f7 8S*<7/2>,1530,80,,,,,,,,,,,
90,Th XXXVIII,Th,XXXVIII,37,Thorium,I,[Kr].4d10.4f7,4f7,8S*<7/2>,4f6 7F<0>,1600,80,,,,,,,,,,,
90,Th XXXIX,Th,XXXIX,38,Thorium,Te,[Kr].4d10.4f6,4f6,7F0,4f5 6H*<5/2>,1680,80,,,,,,,,,,,
90,Th XL,Th,XL,39,Thorium,Sb,[Kr].4d10.4f5,4f5,6H*<5/2>,4f4 5I<4>,1760,90,,,,,,,,,,,
90,Th XLI,Th,XLI,40,Thorium,Sn,[Kr].4d10.4f4,4f4,5I<4>,4f3 4I*<9/2>,1830,90,,,,,,,,,,,
90,Th XLII,Th,XLII,41,Thorium,In,[Kr].4d10.4f3,4f3,4I*<9/2>,4f2 3H<4>,1910,100,,,,,,,,,,,
90,Th XLIII,Th,XLIII,42,Thorium,Cd,[Kr].4d10.4f2,4f2,3H<4>,4f 2F*<5/2>,1980,100,,,,,,,,,,,
90,Th XLIV,Th,XLIV,43,Thorium,Ag,[Kr].4d10.4f,4f,2F*<5/2>,4d10 1S<0>,2060,100,,,,,,,,,,,
90,Th XLV,Th,XLV,44,Thorium,Pd,[Kr].4d10,4d10,1S0,4d9 2D<5/2>,2390,4,,,,,,,,,,,
90,Th XLVI,Th,XLVI,45,Thorium,Rh,[Kr].4d9,4d9,2D<5/2>,4d8 3F<4>,2455,4,,,,,,,,,,,
90,Th XLVII,Th,XLVII,46,Thorium,Ru,[Kr].4d8,4d8,3F<4>,4d7 4F<9/2>,2524,4,,,,,,,,,,,
90,Th XLVIII,Th,XLVIII,47,Thorium,Tc,[Kr].4d7,4d7,4F<9/2>,4d6 5D<4>,2598,4,,,,,,,,,,,
90,Th XLIX,Th,XLIX,48,Thorium,Mo,[Kr].4d6,4d6,5D<4>,"4d-4.4d+ (0,5/2)<5/2>",2669,4,,,,,,,,,,,
90,Th L,Th,L,49,Thorium,Nb,[Kr].4d5,4d-4.4d+,"(0,5/2)<5/2>",4d4 5D<0>,2737,4,,,,,,,,,,,
90,Th LI,Th,LI,50,Thorium,Zr,[Kr].4d4,4d4,5D0,4d3 4F<3/2>,2864,4,,,,,,,,,,,
90,Th LII,Th,LII,51,Thorium,Y,[Kr].4d3,4d3,4F<3/2>,4d2 3F<2>,2935,4,,,,,,,,,,,
90,Th LIII,Th,LIII,52,Thorium,Sr,[Kr].4d2,4d2,3F<2>,4d 2D<3/2>,3013,4,,,,,,,,,,,
90,Th LIV,Th,LIV,53,Thorium,Rb,[Kr].4d,4d,2D<3/2>,4p6 1S<0>,3086,5,,,,,,,,,,,
90,Th LV,Th,LV,54,Thorium,Kr,[Ar].3d10.4s2.4p6,4p6,1S0,4p5 2P*<3/2>,3375,5,,,,,,,,,,,
90,Th LVI,Th,LVI,55,Thorium,Br,[Ar].3d10.4s2.4p5,4p5,2P*<3/2>,4p4 3P<2>,3445,5,,,,,,,,,,,
90,Th LVII,Th,LVII,56,Thorium,Se,[Ar].3d10.4s2.4p4,4p4,3P<2>,"4p-2.4p+ (0,3/2)*<3/2>",3522,5,,,,,,,,,,,
90,Th LVIII,Th,LVIII,57,Thorium,As,[Ar].3d10.4s2.4p3,4p-2.4p+,"(0,3/2)*<3/2>",4p2 3P<0>,3593,6,,,,,,,,,,,
90,Th LIX,Th,LIX,58,Thorium,Ge,[Ar].3d10.4s2.4p2,4p2,3P0,4p 2P*<1/2>,3943,6,,,,,,,,,,,
90,Th LX,Th,LX,59,Thorium,Ga,[Ar].3d10.4s2.4p,4p,2P*<1/2>,4s2 1S<0>,4025,7,,,,,,,,,,,
90,Th LXI,Th,LXI,60,Thorium,Zn,[Ar].3d10.4s2,4s2,1S0,4s 2S<1/2>,4230,10,,,,,,,,,,,
90,Th LXII,Th,LXII,61,Thorium,Cu,[Ar].3d10.4s,4s,2S<1/2>,3d10 1S<0>,4313,4,,,,,,,,,,,
90,Th LXIII,Th,LXIII,62,Thorium,Ni,[Ar].3d10,3d10,1S0,3d9 2D<5/2>,6972,15,,,,,,,,,,,
90,Th LXIV,Th,LXIV,63,Thorium,Co,[Ar].3d9,3d9,2D<5/2>,3d8 3F<4>,7130,19,,,,,,,,,,,
90,Th LXV,Th,LXV,64,Thorium,Fe,[Ar].3d8,3d8,3F<4>,3d7 4F<9/2>,7299,24,,,,,,,,,,,
90,Th LXVI,Th,LXVI,65,Thorium,Mn,[Ar].3d7,3d7,4F<9/2>,"3d-4.3d+2 (0,4)<4>",7480,30,,,,,,,,,,,
90,Th LXVII,Th,LXVII,66,Thorium,Cr,[Ar].3d6,3d-4.3d+2,"(0,4)<4>","3d-4.3d+ (0,5/2)<5/2>",7650,40,,,,,,,,,,,
90,Th LXVIII,Th,LXVIII,67,Thorium,V,[Ar].3d5,3d-4.3d+,"(0,5/2)<5/2>",3d4 5D<0>,7810,40,,,,,,,,,,,
90,Th LXIX,Th,LXIX,68,Thorium,Ti,[Ar].3d4,3d4,5D0,3d3 4F<3/2>,8180,50,,,,,,,,,,,
90,Th LXX,Th,LXX,69,Thorium,Sc,[Ar].3d3,3d3,4F<3/2>,3d2 3F<2>,8350,50,,,,,,,,,,,
90,Th LXXI,Th,LXXI,70,Thorium,Ca,[Ar].3d2,3d2,3F<2>,3d 2D<3/2>,8550,60,,,,,,,,,,,
90,Th LXXII,Th,LXXII,71,Thorium,K,[Ar].3d,3d,2D<3/2>,3p6 1S<0>,8720,60,,,,,,,,,,,
90,Th LXXIII,Th,LXXIII,72,Thorium,Ar,[Ne].3s2.3p6,3p6,1S0,3p5 2P*<3/2>,9220,70,,,,,,,,,,,
90,Th LXXIV,Th,LXXIV,73,Thorium,Cl,[Ne].3s2.3p5,3p5,2P*<3/2>,3p4 3P<2>,9370,90,,,,,,,,,,,
90,Th LXXV,Th,LXXV,74,Thorium,S,[Ne].3s2.3p4,3p4,3P<2>,3p3 2P*<3/2>,9540,90,,,,,,,,,,,
90,Th LXXVI,Th,LXXVI,75,Thorium,P,[Ne].3s2.3p3,3p3,2P*<3/2>,3p2 3P<0>,9690,100,,,,,,,,,,,
90,Th LXXVII,Th,LXXVII,76,Thorium,Si,[Ne].3s2.3p2,3p2,3P0,3p 2P*<1/2>,10790,110,,,,,,,,,,,
90,Th LXXVIII,Th,LXXVIII,77,Thorium,Al,[Ne].3s2.3p,3p,2P*<1/2>,3s2 1S<0>,10970,120,,,,,,,,,,,
90,Th LXXIX,Th,LXXIX,78,Thorium,Mg,[Ne].3s2,3s2,1S0,3s 2S<1/2>,11340,120,,,,,,,,,,,
90,Th LXXX,Th,LXXX,79,Thorium,Na,[Ne].3s,3s,2S<1/2>,2p6 1S<0>,11510,140,,,,,,,,,,,
90,Th LXXXI,Th,LXXXI,80,Thorium,Ne,1s2.2s2.2p6,2p6,1S0,2p5 2P*<3/2>,24060,150,,,,,,,,,,,
90,Th LXXXII,Th,LXXXII,81,Thorium,F,1s2.2s2.2p5,2p5,2P*<3/2>,2p4 3P<2>,24480,160,,,,,,,,,,,
90,Th LXXXIII,Th,LXXXIII,82,Thorium,O,1s2.2s2.2p4,2p4,3P<2>,"2p2<1/2>.2p<3/2> (0,3/2)*<3/2>",24940,170,,,,,,,,,,,
90,Th LXXXIV,Th,LXXXIV,83,Thorium,N,1s2.2s2.2p3,2p2<1/2>.2p<3/2>,"(0,3/2)*<3/2>",2p2 3P<0>,25360,190,,,,,,,,,,,
90,Th LXXXV,Th,LXXXV,84,Thorium,C,1s2.2s2.2p2,2p2,3P0,2p 2P*<1/2>,29410,200,,,,,,,,,,,
90,Th LXXXVI,Th,LXXXVI,85,Thorium,B,1s2.2s2.2p,2p,2P*<1/2>,2s2 1S<0>,29970,220,,,,,,,,,,,
90,Th LXXXVII,Th,LXXXVII,86,Thorium,Be,1s2.2s2,2s2,1S0,2s 2S<1/2>,30680,240,,,,,,,,,,,
90,Th LXXXVIII,Th,LXXXVIII,87,Thorium,Li,1s2.2s,1s2.2s,2S<1/2>,1s2 1S<0>,31122.8,0.6,,,,,,,,,,,