At. num,Sp. Name,Element,Valence,Ion Charge,El. Name,Isoel. Seq.,Ground Shells (a),Ground Config.,Ground Level,Ionized Level,Ionization Energy (b) (eV),Uncertainty (c) (eV),,,,,,,,,,,
104,Rf LXIX,Rf,LXIX,68,Rutherfordium,Kr,[Ar].3d10.4s2.4p6,4p6,1S0,4p5 2P*<3/2>,5130,50,,,,,,,,,,,
104,Rf LXX,Rf,LXX,69,Rutherfordium,Br,[Ar].3d10.4s2.4p5,4p5,2P*<3/2>,4p4 3P<2>,5210,50,,,,,,,,,,,
104,Rf LXXI,Rf,LXXI,70,Rutherfordium,Se,[Ar].3d10.4s2.4p4,4p4,3P<2>,"4p-2.4p+ (0,3/2)*<3/2>",5300,60,,,,,,,,,,,
104,Rf LXXII,Rf,LXXII,71,Rutherfordium,As,[Ar].3d10.4s2.4p3,4p-2.4p+,"(0,3/2)*<3/2>",4p2 3P<0>,5390,60,,,,,,,,,,,
104,Rf LXXIII,Rf,LXXIII,72,Rutherfordium,Ge,[Ar].3d10.4s2.4p2,4p2,3P0,4p 2P*<1/2>,6100,70,,,,,,,,,,,
104,Rf LXXIV,Rf,LXXIV,73,Rutherfordium,Ga,[Ar].3d10.4s2.4p,4p,2P*<1/2>,4s2 1S<0>,6200,90,,,,,,,,,,,
104,Rf LXXV,Rf,LXXV,74,Rutherfordium,Zn,[Ar].3d10.4s2,4s2,1S0,4s 2S<1/2>,6470,90,,,,,,,,,,,
104,Rf LXXVI,Rf,LXXVI,75,Rutherfordium,Cu,[Ar].3d10.4s,4s,2S<1/2>,3d10 1S<0>,6570,100,,,,,,,,,,,
104,Rf LXXVII,Rf,LXXVII,76,Rutherfordium,Ni,[Ar].3d10,3d10,1S0,3d9 2D<5/2>,10170,110,,,,,,,,,,,
104,Rf LXXVIII,Rf,LXXVIII,77,Rutherfordium,Co,[Ar].3d9,3d9,2D<5/2>,3d8 3F<4>,10360,120,,,,,,,,,,,
104,Rf LXXIX,Rf,LXXIX,78,Rutherfordium,Fe,[Ar].3d8,3d8,3F<4>,3d7 4F<9/2>,10560,120,,,,,,,,,,,
104,Rf LXXX,Rf,LXXX,79,Rutherfordium,Mn,[Ar].3d7,3d7,4F<9/2>,"3d-4.3d+2 (0,4)<4>",10780,140,,,,,,,,,,,
104,Rf LXXXI,Rf,LXXXI,80,Rutherfordium,Cr,[Ar].3d6,3d-4.3d+2,"(0,4)<4>","3d-4.3d+ (0,5/2)<5/2>",10980,150,,,,,,,,,,,
104,Rf LXXXII,Rf,LXXXII,81,Rutherfordium,V,[Ar].3d5,3d-4.3d+,"(0,5/2)<5/2>",3d4 5D<0>,11180,160,,,,,,,,,,,
104,Rf LXXXIII,Rf,LXXXIII,82,Rutherfordium,Ti,[Ar].3d4,3d4,5D0,3d3 4F<3/2>,11750,170,,,,,,,,,,,
104,Rf LXXXIV,Rf,LXXXIV,83,Rutherfordium,Sc,[Ar].3d3,3d3,4F<3/2>,3d2 3F<2>,11960,190,,,,,,,,,,,
104,Rf LXXXV,Rf,LXXXV,84,Rutherfordium,Ca,[Ar].3d2,3d2,3F<2>,3d 2D<3/2>,12200,200,,,,,,,,,,,
104,Rf LXXXVI,Rf,LXXXVI,85,Rutherfordium,K,[Ar].3d,3d,2D<3/2>,3p6 1S<0>,12410,220,,,,,,,,,,,
104,Rf LXXXVII,Rf,LXXXVII,86,Rutherfordium,Ar,[Ne].3s2.3p6,3p6,1S0,3p5 2P*<3/2>,13010,240,,,,,,,,,,,
104,Rf LXXXVIII,Rf,LXXXVIII,87,Rutherfordium,Cl,[Ne].3s2.3p5,3p5,2P*<3/2>,3p4 3P<2>,13190,250,,,,,,,,,,,
104,Rf LXXXIX,Rf,LXXXIX,88,Rutherfordium,S,[Ne].3s2.3p4,3p4,3P<2>,3p3 2P*<3/2>,13400,300,,,,,,,,,,,
104,Rf XC,Rf,XC,89,Rutherfordium,P,[Ne].3s2.3p3,3p3,2P*<3/2>,3p2 3P<0>,13600,300,,,,,,,,,,,
104,Rf XCI,Rf,XCI,90,Rutherfordium,Si,[Ne].3s2.3p2,3p2,3P0,3p 2P*<1/2>,15800,300,,,,,,,,,,,
104,Rf XCII,Rf,XCII,91,Rutherfordium,Al,[Ne].3s2.3p,3p,2P*<1/2>,3s2 1S<0>,16000,300,,,,,,,,,,,
104,Rf XCIII,Rf,XCIII,92,Rutherfordium,Mg,[Ne].3s2,3s2,1S0,3s 2S<1/2>,16400,400,,,,,,,,,,,
104,Rf XCIV,Rf,XCIV,93,Rutherfordium,Na,[Ne].3s,3s,2S<1/2>,2p6 1S<0>,16700,400,,,,,,,,,,,
104,Rf XCV,Rf,XCV,94,Rutherfordium,Ne,1s2.2s2.2p6,2p6,1S0,2p5 2P*<3/2>,33100,400,,,,,,,,,,,
104,Rf XCVI,Rf,XCVI,95,Rutherfordium,F,1s2.2s2.2p5,2p5,2P*<3/2>,2p4 3P<2>,33600,400,,,,,,,,,,,
104,Rf XCVII,Rf,XCVII,96,Rutherfordium,O,1s2.2s2.2p4,2p4,3P<2>,"2p2<1/2>.2p<3/2> (0,3/2)*<3/2>",34100,400,,,,,,,,,,,
104,Rf XCVIII,Rf,XCVIII,97,Rutherfordium,N,1s2.2s2.2p3,2p2<1/2>.2p<3/2>,"(0,3/2)*<3/2>",2p2 3P<0>,34600,400,,,,,,,,,,,
104,Rf XCIX,Rf,XCIX,98,Rutherfordium,C,1s2.2s2.2p2,2p2,3P0,2p 2P*<1/2>,42700,500,,,,,,,,,,,
104,Rf C,Rf,C,99,Rutherfordium,B,1s2.2s2.2p,2p,2P*<1/2>,2s2 1S<0>,43400,500,,,,,,,,,,,
104,Rf CI,Rf,CI,100,Rutherfordium,Be,1s2.2s2,2s2,1S0,2s 2S<1/2>,44300,500,,,,,,,,,,,
104,Rf CII,Rf,CII,101,Rutherfordium,Li,1s2.2s,1s2.2s,2S<1/2>,1s2 1S<0>,,,,,,,,,,,,,
104,Rf CIII,Rf,CIII,102,Rutherfordium,He,1s2,1s2,1S0,1s 2S<1/2>,174265,9,,,,,,,,,,,
104,Rf CIV,Rf,CIV,103,Rutherfordium,H,1s,1s,2S<1/2>,,177142,9,,,,,,,,,,,
105,Db I,Db,I,0,Dubnium,Db,[Rn].5f14.6d3.7s2,6d3.7s2,4F<3/2>,6d2.7s2 3F<2>,6.8,0.5,,,,,,,,,,,
105,Db II,Db,II,1,Dubnium,Rf,[Rn].5f14.6d2.7s2,6d2.7s2,3F<2>,6d2.7s <3/2>,14,1.6,,,,,,,,,,,
105,Db III,Db,III,2,Dubnium,Lr,[Rn].5f14.6d2.7s,6d2.7s,<3/2>,6d2 <2>,23.1,1.6,,,,,,,,,,,
105,Db IV,Db,IV,3,Dubnium,No,[Rn].5f14.6d2,6d2,<2>,5f14.6d 2D<3/2>,33,1.7,,,,,,,,,,,
105,Db V,Db,V,4,Dubnium,Md,[Rn].5f14.6d,5f14.6d,2D<3/2>,5f14 1S<0>,43,1.9,,,,,,,,,,,
105,Db VI,Db,VI,5,Dubnium,Fm,[Rn].5f14,5f14,1S0,5f13 2F*<7/2>,86,2,,,,,,,,,,,
105,Db VII,Db,VII,6,Dubnium,Es,[Rn].5f13,5f13,2F*<7/2>,5f12 3H<6>,98.9,2,,,,,,,,,,,
105,Db VIII,Db,VIII,7,Dubnium,Cf,[Rn].5f12,5f12,3H<6>,5f11 4I*<15/2>,126,2.1,,,,,,,,,,,
105,Db IX,Db,IX,8,Dubnium,Bk,[Rn].5f11,5f11,4I*<15/2>,5f10 5I<8>,145.1,2.2,,,,,,,,,,,
105,Db X,Db,X,9,Dubnium,Cm,[Rn].5f10,5f10,5I<8>,5f9 6H*<15/2>,172,2.2,,,,,,,,,,,
105,Db XI,Db,XI,10,Dubnium,Am,[Rn].5f9,5f9,6H*<15/2>,5f8 7F<6>,196,2.4,,,,,,,,,,,
105,Db XII,Db,XII,11,Dubnium,Pu,[Rn].5f8,5f8,7F<6>,5f7 8S*<7/2>,220.9,2.5,,,,,,,,,,,
105,Db XIII,Db,XIII,12,Dubnium,Np,[Rn].5f7,5f7,8S*<7/2>,5f6 7F<0>,254,3,,,,,,,,,,,
105,Db XIV,Db,XIV,13,Dubnium,U,[Rn].5f6,5f6,7F0,5f5 6H*<5/2>,274,3,,,,,,,,,,,
105,Db XV,Db,XV,14,Dubnium,Pa,[Rn].5f5,5f5,6H*<5/2>,5f4 5I<4>,307,3,,,,,,,,,,,
105,Db XVI,Db,XVI,15,Dubnium,Th,[Rn].5f4,5f4,5I<4>,,,,,,,,,,,,,,
105,Db XXVIII,Db,XXVIII,27,Dubnium,Pt,[Xe].4f14.5d10,5d10,1S0,5d9 2D<5/2>,838,4,,,,,,,,,,,
105,Db XXIX,Db,XXIX,28,Dubnium,Ir,[Xe].4f14.5d9,5d9,2D<5/2>,5d8 3F<4>,872,4,,,,,,,,,,,
105,Db XXX,Db,XXX,29,Dubnium,Os,[Xe].4f14.5d8,5d8,3F<4>,5d7 4F<9/2>,908,4,,,,,,,,,,,
105,Db XXXI,Db,XXXI,30,Dubnium,Re,[Xe].4f14.5d7,5d7,4F<9/2>,5d6 5D<4>,948,4,,,,,,,,,,,
105,Db XXXII,Db,XXXII,31,Dubnium,W,[Xe].4f14.5d6,5d6,5D<4>,5d5 6S<5/2>,985,4,,,,,,,,,,,
105,Db XXXIII,Db,XXXIII,32,Dubnium,Ta,[Xe].4f14.5d5,5d5,6S<5/2>,5d4 5D<0>,1022,4,,,,,,,,,,,
105,Db XXXIV,Db,XXXIV,33,Dubnium,Hf,[Xe].4f14.5d4,5d4,5D0,5d3 4F<3/2>,1089,5,,,,,,,,,,,
105,Db XXXV,Db,XXXV,34,Dubnium,Lu,[Xe].4f14.5d3,5d3,4F<3/2>,5d2 3F<2>,1126,5,,,,,,,,,,,
105,Db XXXVI,Db,XXXVI,35,Dubnium,Yb,[Xe].4f14.5d2,5d2,3F<2>,5d 2D<3/2>,1168,5,,,,,,,,,,,
105,Db XXXVII,Db,XXXVII,36,Dubnium,Tm,[Xe].4f14.5d,5d,2D<3/2>,4f14 1S<0>,1207,5,,,,,,,,,,,
105,Db XXXVIII,Db,XXXVIII,37,Dubnium,Er,[Xe].4f14,4f14,1S0,4f14.5p5 2P*<3/2>,,,,,,,,,,,,,
105,Db XXXIX,Db,XXXIX,38,Dubnium,Ho,[Cd].4f14.5p5,4f14.5p5,2P*<3/2>,4f14.5p4 3P<2>,,,,,,,,,,,,,
105,Db XL,Db,XL,39,Dubnium,Dy,[Cd].4f14.5p4,4f14.5p4,3P<2>,4f14.5p3 2P*<3/2>,,,,,,,,,,,,,
105,Db XLI,Db,XLI,40,Dubnium,Tb,[Cd].4f14.5p3,4f14.5p3,2P*<3/2>,4f14.5p2 3P<0>,,,,,,,,,,,,,
105,Db XLII,Db,XLII,41,Dubnium,Gd,[Cd].4f14.5p2,4f14.5p2,3P0,4f14.5p 2P*<1/2>,,,,,,,,,,,,,
105,Db XLIII,Db,XLIII,42,Dubnium,Eu,[Cd].4f14.5p,4f14.5p,2P*<1/2>,4f14 1S<0>,,,,,,,,,,,,,
105,Db XLIV,Db,XLIV,43,Dubnium,Sm,[Cd].4f14,4f14,1S0,4f14.5s 2S<1/2>,,,,,,,,,,,,,
105,Db XLV,Db,XLV,44,Dubnium,Pm,[Kr].4d10.4f14.5s,4f14.5s,2S<1/2>,4f14 1S<0>,,,,,,,,,,,,,
105,Db XLVI,Db,XLVI,45,Dubnium,Nd,[Kr].4d10.4f14,4f14,1S0,4f13 2F*<7/2>,,,,,,,,,,,,,
105,Db XLVII,Db,XLVII,46,Dubnium,Pr,[Kr].4d10.4f13,4f13,2F*<7/2>,4f12,,,,,,,,,,,,,
105,Db XLVIII,Db,XLVIII,47,Dubnium,Ce,[Kr].4d10.4f12,4f12,,4f11 4I*<15/2>,,,,,,,,,,,,,
105,Db XLIX,Db,XLIX,48,Dubnium,La,[Kr].4d10.4f11,4f11,4I*<15/2>,4f10 5I<8>,,,,,,,,,,,,,
105,Db L,Db,L,49,Dubnium,Ba,[Kr].4d10.4f10,4f10,5I<8>,4f9 6H*<15/2>,,,,,,,,,,,,,
105,Db LI,Db,LI,50,Dubnium,Cs,[Kr].4d10.4f9,4f9,6H*<15/2>,4f8 7F<6>,,,,,,,,,,,,,
105,Db LII,Db,LII,51,Dubnium,Xe,[Kr].4d10.4f8,4f8,7F<6>,4f7 8S*<7/2>,,,,,,,,,,,,,
105,Db LIII,Db,LIII,52,Dubnium,I,[Kr].4d10.4f7,4f7,8S*<7/2>,4f6 7F<0>,,,,,,,,,,,,,
105,Db LIV,Db,LIV,53,Dubnium,Te,[Kr].4d10.4f6,4f6,7F0,4f5 6H*<5/2>,,,,,,,,,,,,,
105,Db LV,Db,LV,54,Dubnium,Sb,[Kr].4d10.4f5,4f5,6H*<5/2>,4f4 5I<4>,,,,,,,,,,,,,
105,Db LVI,Db,LVI,55,Dubnium,Sn,[Kr].4d10.4f4,4f4,5I<4>,4f3 4I*<9/2>,,,,,,,,,,,,,
105,Db LVII,Db,LVII,56,Dubnium,In,[Kr].4d10.4f3,4f3,4I*<9/2>,4f2 3H<4>,,,,,,,,,,,,,
105,Db LVIII,Db,LVIII,57,Dubnium,Cd,[Kr].4d10.4f2,4f2,3H<4>,4f 2F*<5/2>,,,,,,,,,,,,,
105,Db LIX,Db,LIX,58,Dubnium,Ag,[Kr].4d10.4f,4f,2F*<5/2>,4d10 1S<0>,,,,,,,,,,,,,
105,Db LX,Db,LX,59,Dubnium,Pd,[Kr].4d10,4d10,1S0,4d9 2D<5/2>,3975,7,,,,,,,,,,,
105,Db LXI,Db,LXI,60,Dubnium,Rh,[Kr].4d9,4d9,2D<5/2>,4d8 3F<4>,4057,10,,,,,,,,,,,
105,Db LXII,Db,LXII,61,Dubnium,Ru,[Kr].4d8,4d8,3F<4>,4d7 4F<9/2>,4145,12,,,,,,,,,,,
105,Db LXIII,Db,LXIII,62,Dubnium,Tc,[Kr].4d7,4d7,4F<9/2>,4d6 5D<4>,4237,15,,,,,,,,,,,
105,Db LXIV,Db,LXIV,63,Dubnium,Mo,[Kr].4d6,4d6,5D<4>,"4d-4.4d+ (0,5/2)<5/2>",4326,19,,,,,,,,,,,
105,Db LXV,Db,LXV,64,Dubnium,Nb,[Kr].4d5,4d-4.4d+,"(0,5/2)<5/2>",4d4 5D<0>,4411,24,,,,,,,,,,,
105,Db LXVI,Db,LXVI,65,Dubnium,Zr,[Kr].4d4,4d4,5D0,4d3 4F<3/2>,4620,30,,,,,,,,,,,
105,Db LXVII,Db,LXVII,66,Dubnium,Y,[Kr].4d3,4d3,4F<3/2>,4d2 3F<2>,4710,40,,,,,,,,,,,
105,Db LXVIII,Db,LXVIII,67,Dubnium,Sr,[Kr].4d2,4d2,3F<2>,4d 2D<3/2>,4810,40,,,,,,,,,,,
105,Db LXIX,Db,LXIX,68,Dubnium,Rb,[Kr].4d,4d,2D<3/2>,4p6 1S<0>,4900,50,,,,,,,,,,,
105,Db LXX,Db,LXX,69,Dubnium,Kr,[Ar].3d10.4s2.4p6,4p6,1S0,4p5 2P*<3/2>,5260,50,,,,,,,,,,,
105,Db LXXI,Db,LXXI,70,Dubnium,Br,[Ar].3d10.4s2.4p5,4p5,2P*<3/2>,4p4 3P<2>,5350,60,,,,,,,,,,,
105,Db LXXII,Db,LXXII,71,Dubnium,Se,[Ar].3d10.4s2.4p4,4p4,3P<2>,"4p-2.4p+ (0,3/2)*<3/2>",5450,60,,,,,,,,,,,
105,Db LXXIII,Db,LXXIII,72,Dubnium,As,[Ar].3d10.4s2.4p3,4p-2.4p+,"(0,3/2)*<3/2>",4p2 3P<0>,5530,70,,,,,,,,,,,
105,Db LXXIV,Db,LXXIV,73,Dubnium,Ge,[Ar].3d10.4s2.4p2,4p2,3P0,4p 2P*<1/2>,6280,90,,,,,,,,,,,
105,Db LXXV,Db,LXXV,74,Dubnium,Ga,[Ar].3d10.4s2.4p,4p,2P*<1/2>,4s2 1S<0>,6380,90,,,,,,,,,,,
105,Db LXXVI,Db,LXXVI,75,Dubnium,Zn,[Ar].3d10.4s2,4s2,1S0,4s 2S<1/2>,6650,100,,,,,,,,,,,
105,Db LXXVII,Db,LXXVII,76,Dubnium,Cu,[Ar].3d10.4s,4s,2S<1/2>,3d10 1S<0>,6760,110,,,,,,,,,,,
105,Db LXXVIII,Db,LXXVIII,77,Dubnium,Ni,[Ar].3d10,3d10,1S0,3d9 2D<5/2>,10420,120,,,,,,,,,,,
105,Db LXXIX,Db,LXXIX,78,Dubnium,Co,[Ar].3d9,3d9,2D<5/2>,3d8 3F<4>,10610,120,,,,,,,,,,,
105,Db LXXX,Db,LXXX,79,Dubnium,Fe,[Ar].3d8,3d8,3F<4>,3d7 4F<9/2>,10820,140,,,,,,,,,,,
105,Db LXXXI,Db,LXXXI,80,Dubnium,Mn,[Ar].3d7,3d7,4F<9/2>,"3d-4.3d+2 (0,4)<4>",11040,150,,,,,,,,,,,
105,Db LXXXII,Db,LXXXII,81,Dubnium,Cr,[Ar].3d6,3d-4.3d+2,"(0,4)<4>","3d-4.3d+ (0,5/2)<5/2>",11240,160,,,,,,,,,,,
105,Db LXXXIII,Db,LXXXIII,82,Dubnium,V,[Ar].3d5,3d-4.3d+,"(0,5/2)<5/2>",3d4 5D<0>,11440,170,,,,,,,,,,,
105,Db LXXXIV,Db,LXXXIV,83,Dubnium,Ti,[Ar].3d4,3d4,5D0,3d3 4F<3/2>,12040,190,,,,,,,,,,,
105,Db LXXXV,Db,LXXXV,84,Dubnium,Sc,[Ar].3d3,3d3,4F<3/2>,3d2 3F<2>,12250,200,,,,,,,,,,,
105,Db LXXXVI,Db,LXXXVI,85,Dubnium,Ca,[Ar].3d2,3d2,3F<2>,3d 2D<3/2>,12480,220,,,,,,,,,,,
105,Db LXXXVII,Db,LXXXVII,86,Dubnium,K,[Ar].3d,3d,2D<3/2>,3p6 1S<0>,12700,240,,,,,,,,,,,
105,Db LXXXVIII,Db,LXXXVIII,87,Dubnium,Ar,[Ne].3s2.3p6,3p6,1S0,3p5 2P*<3/2>,13300,250,,,,,,,,,,,
105,Db LXXXIX,Db,LXXXIX,88,Dubnium,Cl,[Ne].3s2.3p5,3p5,2P*<3/2>,3p4 3P<2>,13500,300,,,,,,,,,,,
105,Db XC,Db,XC,89,Dubnium,S,[Ne].3s2.3p4,3p4,3P<2>,3p3 2P*<3/2>,13700,300,,,,,,,,,,,
105,Db XCI,Db,XCI,90,Dubnium,P,[Ne].3s2.3p3,3p3,2P*<3/2>,3p2 3P<0>,13900,300,,,,,,,,,,,
105,Db XCII,Db,XCII,91,Dubnium,Si,[Ne].3s2.3p2,3p2,3P0,3p 2P*<1/2>,16200,300,,,,,,,,,,,
105,Db XCIII,Db,XCIII,92,Dubnium,Al,[Ne].3s2.3p,3p,2P*<1/2>,3s2 1S<0>,16400,400,,,,,,,,,,,
105,Db XCIV,Db,XCIV,93,Dubnium,Mg,[Ne].3s2,3s2,1S0,3s 2S<1/2>,16900,400,,,,,,,,,,,
105,Db XCV,Db,XCV,94,Dubnium,Na,[Ne].3s,3s,2S<1/2>,2p6 1S<0>,17100,400,,,,,,,,,,,
105,Db XCVI,Db,XCVI,95,Dubnium,Ne,1s2.2s2.2p6,2p6,1S0,2p5 2P*<3/2>,33800,400,,,,,,,,,,,
105,Db XCVII,Db,XCVII,96,Dubnium,F,1s2.2s2.2p5,2p5,2P*<3/2>,2p4 3P<2>,34300,400,,,,,,,,,,,
105,Db XCVIII,Db,XCVIII,97,Dubnium,O,1s2.2s2.2p4,2p4,3P<2>,"2p2<1/2>.2p<3/2> (0,3/2)*<3/2>",34800,400,,,,,,,,,,,
105,Db XCIX,Db,XCIX,98,Dubnium,N,1s2.2s2.2p3,2p2<1/2>.2p<3/2>,"(0,3/2)*<3/2>",2p2 3P<0>,35300,500,,,,,,,,,,,
105,Db C,Db,C,99,Dubnium,C,1s2.2s2.2p2,2p2,3P0,2p 2P*<1/2>,43800,500,,,,,,,,,,,
105,Db CI,Db,CI,100,Dubnium,B,1s2.2s2.2p,2p,2P*<1/2>,2s2 1S<0>,44500,500,,,,,,,,,,,
105,Db CII,Db,CII,101,Dubnium,Be,1s2.2s2,2s2,1S0,2s 2S<1/2>,45400,500,,,,,,,,,,,
105,Db CIII,Db,CIII,102,Dubnium,Li,1s2.2s,1s2.2s,2S<1/2>,1s2 1S<0>,,,,,,,,,,,,,
105,Db CIV,Db,CIV,103,Dubnium,He,1s2,1s2,1S0,1s 2S<1/2>,178505,10,,,,,,,,,,,
105,Db CV,Db,CV,104,Dubnium,H,1s,1s,2S<1/2>,,181445,10,,,,,,,,,,,
106,Sg I,Sg,I,0,Seaborgium,Sg,[Rn].5f14.6d4.7s2,6d4.7s2,0,6d3.7s2 4F<3/2>,7.8,0.5,,,,,,,,,,,
106,Sg II,Sg,II,1,Seaborgium,Db,[Rn].5f14.6d3.7s2,6d3.7s2,4F<3/2>,6d3.7s <1>,17.1,0.5,,,,,,,,,,,
106,Sg III,Sg,III,2,Seaborgium,Rf,[Rn].5f14.6d3.7s,6d3.7s,<1>,6d3 <3/2>,25.8,0.5,,,,,,,,,,,
106,Sg IV,Sg,IV,3,Seaborgium,Lr,[Rn].5f14.6d3,6d3,<3/2>,6d2 <2>,35.5,0.5,,,,,,,,,,,
106,Sg V,Sg,V,4,Seaborgium,No,[Rn].5f14.6d2,6d2,<2>,5f14.6d 2D<3/2>,47.2,0.5,,,,,,,,,,,
106,Sg VI,Sg,VI,5,Seaborgium,Md,[Rn].5f14.6d,5f14.6d,2D<3/2>,5f14 1S<0>,59.3,0.5,,,,,,,,,,,
106,Sg VII,Sg,VII,6,Seaborgium,Fm,[Rn].5f14,5f14,1S0,5f13 2F*<7/2>,109,2,,,,,,,,,,,
106,Sg VIII,Sg,VIII,7,Seaborgium,Es,[Rn].5f13,5f13,2F*<7/2>,5f12 3H<6>,122,2.1,,,,,,,,,,,
106,Sg IX,Sg,IX,8,Seaborgium,Cf,[Rn].5f12,5f12,3H<6>,5f11 4I*<15/2>,152,2.2,,,,,,,,,,,
106,Sg X,Sg,X,9,Seaborgium,Bk,[Rn].5f11,5f11,4I*<15/2>,5f10 5I<8>,170,2.2,,,,,,,,,,,
106,Sg XI,Sg,XI,10,Seaborgium,Cm,[Rn].5f10,5f10,5I<8>,5f9 6H*<15/2>,200,2.4,,,,,,,,,,,
106,Sg XII,Sg,XII,11,Seaborgium,Am,[Rn].5f9,5f9,6H*<15/2>,5f8 7F<6>,224,2.5,,,,,,,,,,,
106,Sg XIII,Sg,XIII,12,Seaborgium,Pu,[Rn].5f8,5f8,7F<6>,5f7 8S*<7/2>,251,3,,,,,,,,,,,
106,Sg XIV,Sg,XIV,13,Seaborgium,Np,[Rn].5f7,5f7,8S*<7/2>,5f6 7F<0>,285,3,,,,,,,,,,,
106,Sg XV,Sg,XV,14,Seaborgium,U,[Rn].5f6,5f6,7F0,5f5 6H*<5/2>,306,3,,,,,,,,,,,
106,Sg XVI,Sg,XVI,15,Seaborgium,Pa,[Rn].5f5,5f5,6H*<5/2>,5f4 5I<4>,339,3,,,,,,,,,,,
106,Sg XVII,Sg,XVII,16,Seaborgium,Th,[Rn].5f4,5f4,5I<4>,,,,,,,,,,,,,,
106,Sg XXIX,Sg,XXIX,28,Seaborgium,Pt,[Xe].4f14.5d10,5d10,1S0,5d9 2D<5/2>,885,4,,,,,,,,,,,
106,Sg XXX,Sg,XXX,29,Seaborgium,Ir,[Xe].4f14.5d9,5d9,2D<5/2>,5d8 3F<4>,921,4,,,,,,,,,,,
106,Sg XXXI,Sg,XXXI,30,Seaborgium,Os,[Xe].4f14.5d8,5d8,3F<4>,5d7 4F<9/2>,958,4,,,,,,,,,,,
106,Sg XXXII,Sg,XXXII,31,Seaborgium,Re,[Xe].4f14.5d7,5d7,4F<9/2>,5d6 5D<4>,998,4,,,,,,,,,,,
106,Sg XXXIII,Sg,XXXIII,32,Seaborgium,W,[Xe].4f14.5d6,5d6,5D<4>,5d5 6S<5/2>,1036,4,,,,,,,,,,,
106,Sg XXXIV,Sg,XXXIV,33,Seaborgium,Ta,[Xe].4f14.5d5,5d5,6S<5/2>,5d4 5D<0>,1073,5,,,,,,,,,,,
106,Sg XXXV,Sg,XXXV,34,Seaborgium,Hf,[Xe].4f14.5d4,5d4,5D0,5d3 4F<3/2>,1143,5,,,,,,,,,,,
106,Sg XXXVI,Sg,XXXVI,35,Seaborgium,Lu,[Xe].4f14.5d3,5d3,4F<3/2>,5d2 3F<2>,1181,5,,,,,,,,,,,
106,Sg XXXVII,Sg,XXXVII,36,Seaborgium,Yb,[Xe].4f14.5d2,5d2,3F<2>,5d 2D<3/2>,1223,5,,,,,,,,,,,
106,Sg XXXVIII,Sg,XXXVIII,37,Seaborgium,Tm,[Xe].4f14.5d,5d,2D<3/2>,4f14 1S<0>,1263,4,,,,,,,,,,,
106,Sg XXXIX,Sg,XXXIX,38,Seaborgium,Er,[Xe].4f14,4f14,1S0,4f14.5p5 2P*<3/2>,,,,,,,,,,,,,
106,Sg XL,Sg,XL,39,Seaborgium,Ho,[Cd].4f14.5p5,4f14.5p5,2P*<3/2>,4f14.5p4 3P<2>,,,,,,,,,,,,,
106,Sg XLI,Sg,XLI,40,Seaborgium,Dy,[Cd].4f14.5p4,4f14.5p4,3P<2>,4f14.5p3 2P*<3/2>,,,,,,,,,,,,,
106,Sg XLII,Sg,XLII,41,Seaborgium,Tb,[Cd].4f14.5p3,4f14.5p3,2P*<3/2>,4f14.5p2 3P<0>,,,,,,,,,,,,,
106,Sg XLIII,Sg,XLIII,42,Seaborgium,Gd,[Cd].4f14.5p2,4f14.5p2,3P0,4f14.5p 2P*<1/2>,,,,,,,,,,,,,
106,Sg XLIV,Sg,XLIV,43,Seaborgium,Eu,[Cd].4f14.5p,4f14.5p,2P*<1/2>,4f14 1S<0>,,,,,,,,,,,,,
106,Sg XLV,Sg,XLV,44,Seaborgium,Sm,[Cd].4f14,4f14,1S0,4f14.5s 2S<1/2>,,,,,,,,,,,,,
106,Sg XLVI,Sg,XLVI,45,Seaborgium,Pm,[Kr].4d10.4f14.5s,4f14.5s,2S<1/2>,4f14 1S<0>,,,,,,,,,,,,,
106,Sg XLVII,Sg,XLVII,46,Seaborgium,Nd,[Kr].4d10.4f14,4f14,1S0,4f13 2F*<7/2>,,,,,,,,,,,,,
106,Sg XLVIII,Sg,XLVIII,47,Seaborgium,Pr,[Kr].4d10.4f13,4f13,2F*<7/2>,4f12,,,,,,,,,,,,,
106,Sg XLIX,Sg,XLIX,48,Seaborgium,Ce,[Kr].4d10.4f12,4f12,,4f11 4I*<15/2>,,,,,,,,,,,,,
106,Sg L,Sg,L,49,Seaborgium,La,[Kr].4d10.4f11,4f11,4I*<15/2>,4f10 5I<8>,,,,,,,,,,,,,
106,Sg LI,Sg,LI,50,Seaborgium,Ba,[Kr].4d10.4f10,4f10,5I<8>,4f9 6H*<15/2>,,,,,,,,,,,,,
106,Sg LII,Sg,LII,51,Seaborgium,Cs,[Kr].4d10.4f9,4f9,6H*<15/2>,4f8 7F<6>,,,,,,,,,,,,,
106,Sg LIII,Sg,LIII,52,Seaborgium,Xe,[Kr].4d10.4f8,4f8,7F<6>,4f7 8S*<7/2>,,,,,,,,,,,,,
106,Sg LIV,Sg,LIV,53,Seaborgium,I,[Kr].4d10.4f7,4f7,8S*<7/2>,4f6 7F<0>,,,,,,,,,,,,,
106,Sg LV,Sg,LV,54,Seaborgium,Te,[Kr].4d10.4f6,4f6,7F0,4f5 6H*<5/2>,,,,,,,,,,,,,
106,Sg LVI,Sg,LVI,55,Seaborgium,Sb,[Kr].4d10.4f5,4f5,6H*<5/2>,4f4 5I<4>,,,,,,,,,,,,,
106,Sg LVII,Sg,LVII,56,Seaborgium,Sn,[Kr].4d10.4f4,4f4,5I<4>,4f3 4I*<9/2>,,,,,,,,,,,,,
106,Sg LVIII,Sg,LVIII,57,Seaborgium,In,[Kr].4d10.4f3,4f3,4I*<9/2>,4f2 3H<4>,,,,,,,,,,,,,
106,Sg LIX,Sg,LIX,58,Seaborgium,Cd,[Kr].4d10.4f2,4f2,3H<4>,4f 2F*<5/2>,,,,,,,,,,,,,
106,Sg LX,Sg,LX,59,Seaborgium,Ag,[Kr].4d10.4f,4f,2F*<5/2>,4d10 1S<0>,,,,,,,,,,,,,
106,Sg LXI,Sg,LXI,60,Seaborgium,Pd,[Kr].4d10,4d10,1S0,4d9 2D<5/2>,4095,10,,,,,,,,,,,
106,Sg LXII,Sg,LXII,61,Seaborgium,Rh,[Kr].4d9,4d9,2D<5/2>,4d8 3F<4>,4178,12,,,,,,,,,,,
106,Sg LXIII,Sg,LXIII,62,Seaborgium,Ru,[Kr].4d8,4d8,3F<4>,4d7 4F<9/2>,4267,15,,,,,,,,,,,
106,Sg LXIV,Sg,LXIV,63,Seaborgium,Tc,[Kr].4d7,4d7,4F<9/2>,4d6 5D<4>,4360,19,,,,,,,,,,,
106,Sg LXV,Sg,LXV,64,Seaborgium,Mo,[Kr].4d6,4d6,5D<4>,"4d-4.4d+ (0,5/2)<5/2>",4450,24,,,,,,,,,,,
106,Sg LXVI,Sg,LXVI,65,Seaborgium,Nb,[Kr].4d5,4d-4.4d+,"(0,5/2)<5/2>",4d4 5D<0>,4540,30,,,,,,,,,,,
106,Sg LXVII,Sg,LXVII,66,Seaborgium,Zr,[Kr].4d4,4d4,5D0,4d3 4F<3/2>,4750,40,,,,,,,,,,,
106,Sg LXVIII,Sg,LXVIII,67,Seaborgium,Y,[Kr].4d3,4d3,4F<3/2>,4d2 3F<2>,4840,40,,,,,,,,,,,
106,Sg LXIX,Sg,LXIX,68,Seaborgium,Sr,[Kr].4d2,4d2,3F<2>,4d 2D<3/2>,4940,50,,,,,,,,,,,
106,Sg LXX,Sg,LXX,69,Seaborgium,Rb,[Kr].4d,4d,2D<3/2>,4p6 1S<0>,5030,50,,,,,,,,,,,
106,Sg LXXI,Sg,LXXI,70,Seaborgium,Kr,[Ar].3d10.4s2.4p6,4p6,1S0,4p5 2P*<3/2>,5410,60,,,,,,,,,,,
106,Sg LXXII,Sg,LXXII,71,Seaborgium,Br,[Ar].3d10.4s2.4p5,4p5,2P*<3/2>,4p4 3P<2>,5490,60,,,,,,,,,,,
106,Sg LXXIII,Sg,LXXIII,72,Seaborgium,Se,[Ar].3d10.4s2.4p4,4p4,3P<2>,"4p-2.4p+ (0,3/2)*<3/2>",5590,70,,,,,,,,,,,
106,Sg LXXIV,Sg,LXXIV,73,Seaborgium,As,[Ar].3d10.4s2.4p3,4p-2.4p+,"(0,3/2)*<3/2>",4p2 3P<0>,5680,90,,,,,,,,,,,
106,Sg LXXV,Sg,LXXV,74,Seaborgium,Ge,[Ar].3d10.4s2.4p2,4p2,3P0,4p 2P*<1/2>,6460,90,,,,,,,,,,,
106,Sg LXXVI,Sg,LXXVI,75,Seaborgium,Ga,[Ar].3d10.4s2.4p,4p,2P*<1/2>,4s2 1S<0>,6570,100,,,,,,,,,,,
106,Sg LXXVII,Sg,LXXVII,76,Seaborgium,Zn,[Ar].3d10.4s2,4s2,1S0,4s 2S<1/2>,6840,110,,,,,,,,,,,
106,Sg LXXVIII,Sg,LXXVIII,77,Seaborgium,Cu,[Ar].3d10.4s,4s,2S<1/2>,3d10 1S<0>,6950,120,,,,,,,,,,,
106,Sg LXXIX,Sg,LXXIX,78,Seaborgium,Ni,[Ar].3d10,3d10,1S0,3d9 2D<5/2>,10680,120,,,,,,,,,,,
106,Sg LXXX,Sg,LXXX,79,Seaborgium,Co,[Ar].3d9,3d9,2D<5/2>,3d8 3F<4>,10870,140,,,,,,,,,,,
106,Sg LXXXI,Sg,LXXXI,80,Seaborgium,Fe,[Ar].3d8,3d8,3F<4>,3d7 4F<9/2>,11080,150,,,,,,,,,,,
106,Sg LXXXII,Sg,LXXXII,81,Seaborgium,Mn,[Ar].3d7,3d7,4F<9/2>,"3d-4.3d+2 (0,4)<4>",11300,160,,,,,,,,,,,
106,Sg LXXXIII,Sg,LXXXIII,82,Seaborgium,Cr,[Ar].3d6,3d-4.3d+2,"(0,4)<4>","3d-4.3d+ (0,5/2)<5/2>",11510,170,,,,,,,,,,,
106,Sg LXXXIV,Sg,LXXXIV,83,Seaborgium,V,[Ar].3d5,3d-4.3d+,"(0,5/2)<5/2>",3d4 5D<0>,11710,190,,,,,,,,,,,
106,Sg LXXXV,Sg,LXXXV,84,Seaborgium,Ti,[Ar].3d4,3d4,5D0,3d3 4F<3/2>,12320,200,,,,,,,,,,,
106,Sg LXXXVI,Sg,LXXXVI,85,Seaborgium,Sc,[Ar].3d3,3d3,4F<3/2>,3d2 3F<2>,12540,220,,,,,,,,,,,
106,Sg LXXXVII,Sg,LXXXVII,86,Seaborgium,Ca,[Ar].3d2,3d2,3F<2>,3d 2D<3/2>,12780,240,,,,,,,,,,,
106,Sg LXXXVIII,Sg,LXXXVIII,87,Seaborgium,K,[Ar].3d,3d,2D<3/2>,3p6 1S<0>,12990,250,,,,,,,,,,,
106,Sg LXXXIX,Sg,LXXXIX,88,Seaborgium,Ar,[Ne].3s2.3p6,3p6,1S0,3p5 2P*<3/2>,13600,300,,,,,,,,,,,
106,Sg XC,Sg,XC,89,Seaborgium,Cl,[Ne].3s2.3p5,3p5,2P*<3/2>,3p4 3P<2>,13800,300,,,,,,,,,,,
106,Sg XCI,Sg,XCI,90,Seaborgium,S,[Ne].3s2.3p4,3p4,3P<2>,3p3 2P*<3/2>,14000,300,,,,,,,,,,,
106,Sg XCII,Sg,XCII,91,Seaborgium,P,[Ne].3s2.3p3,3p3,2P*<3/2>,3p2 3P<0>,14200,300,,,,,,,,,,,
106,Sg XCIII,Sg,XCIII,92,Seaborgium,Si,[Ne].3s2.3p2,3p2,3P0,3p 2P*<1/2>,16600,400,,,,,,,,,,,
106,Sg XCIV,Sg,XCIV,93,Seaborgium,Al,[Ne].3s2.3p,3p,2P*<1/2>,3s2 1S<0>,16800,400,,,,,,,,,,,
106,Sg XCV,Sg,XCV,94,Seaborgium,Mg,[Ne].3s2,3s2,1S0,3s 2S<1/2>,17300,400,,,,,,,,,,,
106,Sg XCVI,Sg,XCVI,95,Seaborgium,Na,[Ne].3s,3s,2S<1/2>,2p6 1S<0>,17500,400,,,,,,,,,,,
106,Sg XCVII,Sg,XCVII,96,Seaborgium,Ne,1s2.2s2.2p6,2p6,1S0,2p5 2P*<3/2>,34500,400,,,,,,,,,,,
106,Sg XCVIII,Sg,XCVIII,97,Seaborgium,F,1s2.2s2.2p5,2p5,2P*<3/2>,2p4 3P<2>,35000,400,,,,,,,,,,,
106,Sg XCIX,Sg,XCIX,98,Seaborgium,O,1s2.2s2.2p4,2p4,3P<2>,"2p2<1/2>.2p<3/2> (0,3/2)*<3/2>",35600,500,,,,,,,,,,,