At. num,Sp. Name,Element,Valence,Ion Charge,El. Name,Isoel. Seq.,Ground Shells (a),Ground Config.,Ground Level,Ionized Level,Ionization Energy (b) (eV),Uncertainty (c) (eV),,,,,,,,,,,
57,La XIII,La,XIII,12,Lanthanum,Rh,[Kr].4d9,4d9,2D<5/2>,4d8 3F<4>,303,3,,,,,,,,,,,
57,La XIV,La,XIV,13,Lanthanum,Ru,[Kr].4d8,4d8,3F<4>,4d7 4F<9/2>,332,3,,,,,,,,,,,
57,La XV,La,XV,14,Lanthanum,Tc,[Kr].4d7,4d7,4F<9/2>,4d6 5D<4>,364,3,,,,,,,,,,,
57,La XVI,La,XVI,15,Lanthanum,Mo,[Kr].4d6,4d6,5D<4>,4d5 6S<5/2>,393,3,,,,,,,,,,,
57,La XVII,La,XVII,16,Lanthanum,Nb,[Kr].4d5,4d5,6S<5/2>,4d4 5D<0>,431,3,,,,,,,,,,,
57,La XVIII,La,XVIII,17,Lanthanum,Zr,[Kr].4d4,4d4,5D0,4d3 4F<3/2>,464,3,,,,,,,,,,,
57,La XIX,La,XIX,18,Lanthanum,Y,[Kr].4d3,4d3,4F<3/2>,4d2 3F<2>,498,3,,,,,,,,,,,
57,La XX,La,XX,19,Lanthanum,Sr,[Kr].4d2,4d2,3F<2>,4d 2D<3/2>,533,4,,,,,,,,,,,
57,La XXI,La,XXI,20,Lanthanum,Rb,[Kr].4d,4d,2D<3/2>,4p6 1S<0>,566,4,,,,,,,,,,,
57,La XXII,La,XXII,21,Lanthanum,Kr,[Ar].3d10.4s2.4p6,4p6,1S0,4p5 2P*<3/2>,696,4,,,,,,,,,,,
57,La XXIII,La,XXIII,22,Lanthanum,Br,[Ar].3d10.4s2.4p5,4p5,2P*<3/2>,4p4 3P<2>,731,4,,,,,,,,,,,
57,La XXIV,La,XXIV,23,Lanthanum,Se,[Ar].3d10.4s2.4p4,4p4,3P<2>,4p3 4S*<3/2>,770,4,,,,,,,,,,,
57,La XXV,La,XXV,24,Lanthanum,As,[Ar].3d10.4s2.4p3,4p3,4S*<3/2>,4p2 3P<0>,806,4,,,,,,,,,,,
57,La XXVI,La,XXVI,25,Lanthanum,Ge,[Ar].3d10.4s2.4p2,4p2,3P0,4p 2P*<1/2>,865,4,,,,,,,,,,,
57,La XXVII,La,XXVII,26,Lanthanum,Ga,[Ar].3d10.4s2.4p,4p,2P*<1/2>,4s2 1S<0>,906,4,,,,,,,,,,,
57,La XXVIII,La,XXVIII,27,Lanthanum,Zn,[Ar].3d10.4s2,4s2,1S0,4s 2S<1/2>,995,4,,,,,,,,,,,
57,La XXIX,La,XXIX,28,Lanthanum,Cu,[Ar].3d10.4s,4s,2S<1/2>,3d10 1S<0>,1039.09,0.12,,,,,,,,,,,
57,La XXX,La,XXX,29,Lanthanum,Ni,[Ar].3d10,3d10,1S0,3d9 2D<5/2>,1800,4,,,,,,,,,,,
57,La XXXI,La,XXXI,30,Lanthanum,Co,[Ar].3d9,3d9,2D<5/2>,3d8 3F<4>,1884,4,,,,,,,,,,,
57,La XXXII,La,XXXII,31,Lanthanum,Fe,[Ar].3d8,3d8,3F<4>,3d7 4F<9/2>,1974,4,,,,,,,,,,,
57,La XXXIII,La,XXXIII,32,Lanthanum,Mn,[Ar].3d7,3d7,4F<9/2>,"3d-4.3d+2 (0,4)<4>",2069,4,,,,,,,,,,,
57,La XXXIV,La,XXXIV,33,Lanthanum,Cr,[Ar].3d6,3d-4.3d+2,"(0,4)<4>","3d-4.3d+ (0,5/2)<5/2>",2162,5,,,,,,,,,,,
57,La XXXV,La,XXXV,34,Lanthanum,V,[Ar].3d5,3d-4.3d+,"(0,5/2)<5/2>",3d4 5D<0>,2259,5,,,,,,,,,,,
57,La XXXVI,La,XXXVI,35,Lanthanum,Ti,[Ar].3d4,3d4,5D0,3d3 4F<3/2>,2377,5,,,,,,,,,,,
57,La XXXVII,La,XXXVII,36,Lanthanum,Sc,[Ar].3d3,3d3,4F<3/2>,3d2 3F<2>,2473,5,,,,,,,,,,,
57,La XXXVIII,La,XXXVIII,37,Lanthanum,Ca,[Ar].3d2,3d2,3F<2>,3d 2D<3/2>,2577,4,,,,,,,,,,,
57,La XXXIX,La,XXXIX,38,Lanthanum,K,[Ar].3d,3d,2D<3/2>,3p6 1S<0>,2674,4,,,,,,,,,,,
57,La XL,La,XL,39,Lanthanum,Ar,[Ne].3s2.3p6,3p6,1S0,3p5 2P*<3/2>,2950,4,,,,,,,,,,,
57,La XLI,La,XLI,40,Lanthanum,Cl,[Ne].3s2.3p5,3p5,2P*<3/2>,3p4 3P<2>,3036,4,,,,,,,,,,,
57,La XLII,La,XLII,41,Lanthanum,S,[Ne].3s2.3p4,3p4,3P<2>,3p3 2P*<3/2>,3133,4,,,,,,,,,,,
57,La XLIII,La,XLIII,42,Lanthanum,P,[Ne].3s2.3p3,3p3,2P*<3/2>,3p2 3P<0>,3222,4,,,,,,,,,,,
57,La XLIV,La,XLIV,43,Lanthanum,Si,[Ne].3s2.3p2,3p2,3P0,3p 2P*<1/2>,3416,4,,,,,,,,,,,
57,La XLV,La,XLV,44,Lanthanum,Al,[Ne].3s2.3p,3p,2P*<1/2>,3s2 1S<0>,3515,4,,,,,,,,,,,
57,La XLVI,La,XLVI,45,Lanthanum,Mg,[Ne].3s2,3s2,1S0,3s 2S<1/2>,3704,4,,,,,,,,,,,
57,La XLVII,La,XLVII,46,Lanthanum,Na,[Ne].3s,3s,2S<1/2>,2p6 1S<0>,3800,4,,,,,,,,,,,
57,La XLVIII,La,XLVIII,47,Lanthanum,Ne,1s2.2s2.2p6,2p6,1S0,2p5 2P*<3/2>,8669,4,,,,,,,,,,,
57,La XLIX,La,XLIX,48,Lanthanum,F,1s2.2s2.2p5,2p5,2P*<3/2>,2p4 3P<2>,8914,4,,,,,,,,,,,
57,La L,La,L,49,Lanthanum,O,1s2.2s2.2p4,2p4,3P<2>,"2p2<1/2>.2p<3/2> (0,3/2)*<3/2>",9184,4,,,,,,,,,,,
57,La LI,La,LI,50,Lanthanum,N,1s2.2s2.2p3,2p2<1/2>.2p<3/2>,"(0,3/2)*<3/2>",2p2 3P<0>,9437,4,,,,,,,,,,,
57,La LII,La,LII,51,Lanthanum,C,1s2.2s2.2p2,2p2,3P0,2p 2P*<1/2>,10136,4,,,,,,,,,,,
57,La LIII,La,LIII,52,Lanthanum,B,1s2.2s2.2p,2p,2P*<1/2>,2s2 1S<0>,10426,4,,,,,,,,,,,
57,La LIV,La,LIV,53,Lanthanum,Be,1s2.2s2,2s2,1S0,2s 2S<1/2>,10789,5,,,,,,,,,,,
57,La LV,La,LV,54,Lanthanum,Li,1s2.2s,1s2.2s,2S<1/2>,1s2 1S<0>,11033.4,0.05,,,,,,,,,,,
57,La LVI,La,LVI,55,Lanthanum,He,1s2,1s2,1S0,1s 2S<1/2>,45145,0.04,,,,,,,,,,,
57,La LVII,La,LVII,56,Lanthanum,H,1s,1s,2S<1/2>,,46245.77,0.03,,,,,,,,,,,
58,Ce I,Ce,I,0,Cerium,Ce,[Xe].4f.5d.6s2,4f.5d.6s2,1G*<4>,4f.5s2.5p6.5d2 4H*<7/2>,5.5386,0.0004,,,,,,,,,,,
58,Ce II,Ce,II,1,Cerium,La,[Xe].4f.5d2,4f.(2F*).5d2.(3F),4H*<7/2>,4f2.5s2.5p6 3H<4>,10.956,0.02,,,,,,,,,,,
58,Ce III,Ce,III,2,Cerium,Ba,[Xe].4f2,4f2,3H<4>,4f.5s2.5p6 2F*<5/2>,20.1974,0.0025,,,,,,,,,,,
58,Ce IV,Ce,IV,3,Cerium,Cs,[Xe].4f,5p6.4f,2F*<5/2>,5s2.5p6 1S<0>,36.906,0.009,,,,,,,,,,,
58,Ce V,Ce,V,4,Cerium,Xe,[Cd].5p6,5p6,1S0,5s2.5p5 2P*<3/2>,65.55,0.25,,,,,,,,,,,
58,Ce VI,Ce,VI,5,Cerium,I,[Cd].5p5,5s2.5p5,2P*<3/2>,5s2.5p4 3P<2>,77.6,1.2,,,,,,,,,,,
58,Ce VII,Ce,VII,6,Cerium,Te,[Cd].5p4,5s2.5p4,3P<2>,5s2.5p3 4S*<3/2>,91,2,,,,,,,,,,,
58,Ce VIII,Ce,VIII,7,Cerium,Sb,[Cd].5p3,5s2.5p3,4S*<3/2>,5s2.5p2 3P<0>,106,2.1,,,,,,,,,,,
58,Ce IX,Ce,IX,8,Cerium,Sn,[Cd].5p2,5s2.5p2,3P0,5s2.5p 2P*<1/2>,125,2.2,,,,,,,,,,,
58,Ce X,Ce,X,9,Cerium,In,[Cd].5p,5s2.5p,2P*<1/2>,5s2 1S<0>,140,2.2,,,,,,,,,,,
58,Ce XI,Ce,XI,10,Cerium,Cd,[Kr].4d10.5s2,5s2,1S0,5s 2S<1/2>,172,2.4,,,,,,,,,,,
58,Ce XII,Ce,XII,11,Cerium,Ag,[Kr].4d10.5s,5s,2S<1/2>,4d10 1S<0>,192.24,0.12,,,,,,,,,,,
58,Ce XIII,Ce,XIII,12,Cerium,Pd,[Kr].4d10,4d10,1S0,4d9 2D<5/2>,312,3,,,,,,,,,,,
58,Ce XIV,Ce,XIV,13,Cerium,Rh,[Kr].4d9,4d9,2D<5/2>,4d8 3F<4>,340,3,,,,,,,,,,,
58,Ce XV,Ce,XV,14,Cerium,Ru,[Kr].4d8,4d8,3F<4>,4d7 4F<9/2>,371,3,,,,,,,,,,,
58,Ce XVI,Ce,XVI,15,Cerium,Tc,[Kr].4d7,4d7,4F<9/2>,4d6 5D<4>,403,3,,,,,,,,,,,
58,Ce XVII,Ce,XVII,16,Cerium,Mo,[Kr].4d6,4d6,5D<4>,4d5 6S<5/2>,435,3,,,,,,,,,,,
58,Ce XVIII,Ce,XVIII,17,Cerium,Nb,[Kr].4d5,4d5,6S<5/2>,4d4 5D<0>,472,3,,,,,,,,,,,
58,Ce XIX,Ce,XIX,18,Cerium,Zr,[Kr].4d4,4d4,5D0,4d3 4F<3/2>,509,3,,,,,,,,,,,
58,Ce XX,Ce,XX,19,Cerium,Y,[Kr].4d3,4d3,4F<3/2>,4d2 3F<2>,543,4,,,,,,,,,,,
58,Ce XXI,Ce,XXI,20,Cerium,Sr,[Kr].4d2,4d2,3F<2>,4d 2D<3/2>,579,4,,,,,,,,,,,
58,Ce XXII,Ce,XXII,21,Cerium,Rb,[Kr].4d,4d,2D<3/2>,4p6 1S<0>,613,4,,,,,,,,,,,
58,Ce XXIII,Ce,XXIII,22,Cerium,Kr,[Ar].3d10.4s2.4p6,4p6,1S0,4p5 2P*<3/2>,749,4,,,,,,,,,,,
58,Ce XXIV,Ce,XXIV,23,Cerium,Br,[Ar].3d10.4s2.4p5,4p5,2P*<3/2>,4p4 3P<2>,785,4,,,,,,,,,,,
58,Ce XXV,Ce,XXV,24,Cerium,Se,[Ar].3d10.4s2.4p4,4p4,3P<2>,4p3 4S*<3/2>,824,4,,,,,,,,,,,
58,Ce XXVI,Ce,XXVI,25,Cerium,As,[Ar].3d10.4s2.4p3,4p3,4S*<3/2>,4p2 3P<0>,862,4,,,,,,,,,,,
58,Ce XXVII,Ce,XXVII,26,Cerium,Ge,[Ar].3d10.4s2.4p2,4p2,3P0,4p 2P*<1/2>,924,4,,,,,,,,,,,
58,Ce XXVIII,Ce,XXVIII,27,Cerium,Ga,[Ar].3d10.4s2.4p,4p,2P*<1/2>,4s2 1S<0>,965,4,,,,,,,,,,,
58,Ce XXIX,Ce,XXIX,28,Cerium,Zn,[Ar].3d10.4s2,4s2,1S0,4s 2S<1/2>,1060,4,,,,,,,,,,,
58,Ce XXX,Ce,XXX,29,Cerium,Cu,[Ar].3d10.4s,4s,2S<1/2>,3d10 1S<0>,1103.5,0.5,,,,,,,,,,,
58,Ce XXXI,Ce,XXXI,30,Cerium,Ni,[Ar].3d10,3d10,1S0,3d9 2D<5/2>,1908,4,,,,,,,,,,,
58,Ce XXXII,Ce,XXXII,31,Cerium,Co,[Ar].3d9,3d9,2D<5/2>,3d8 3F<4>,1994,4,,,,,,,,,,,
58,Ce XXXIII,Ce,XXXIII,32,Cerium,Fe,[Ar].3d8,3d8,3F<4>,3d7 4F<9/2>,2087,4,,,,,,,,,,,
58,Ce XXXIV,Ce,XXXIV,33,Cerium,Mn,[Ar].3d7,3d7,4F<9/2>,"3d-4.3d+2 (0,4)<4>",2185,5,,,,,,,,,,,
58,Ce XXXV,Ce,XXXV,34,Cerium,Cr,[Ar].3d6,3d-4.3d+2,"(0,4)<4>","3d-4.3d+ (0,5/2)<5/2>",2280,5,,,,,,,,,,,
58,Ce XXXVI,Ce,XXXVI,35,Cerium,V,[Ar].3d5,3d-4.3d+,"(0,5/2)<5/2>",3d4 5D<0>,2378,5,,,,,,,,,,,
58,Ce XXXVII,Ce,XXXVII,36,Cerium,Ti,[Ar].3d4,3d4,5D0,3d3 4F<3/2>,2500,5,,,,,,,,,,,
58,Ce XXXVIII,Ce,XXXVIII,37,Cerium,Sc,[Ar].3d3,3d3,4F<3/2>,3d2 3F<2>,2600,4,,,,,,,,,,,
58,Ce XXXIX,Ce,XXXIX,38,Cerium,Ca,[Ar].3d2,3d2,3F<2>,3d 2D<3/2>,2706,4,,,,,,,,,,,
58,Ce XL,Ce,XL,39,Cerium,K,[Ar].3d,3d,2D<3/2>,3p6 1S<0>,2806,4,,,,,,,,,,,
58,Ce XLI,Ce,XLI,40,Cerium,Ar,[Ne].3s2.3p6,3p6,1S0,3p5 2P*<3/2>,3087,4,,,,,,,,,,,
58,Ce XLII,Ce,XLII,41,Cerium,Cl,[Ne].3s2.3p5,3p5,2P*<3/2>,3p4 3P<2>,3176,4,,,,,,,,,,,
58,Ce XLIII,Ce,XLIII,42,Cerium,S,[Ne].3s2.3p4,3p4,3P<2>,3p3 2P*<3/2>,3274,4,,,,,,,,,,,
58,Ce XLIV,Ce,XLIV,43,Cerium,P,[Ne].3s2.3p3,3p3,2P*<3/2>,3p2 3P<0>,3366,4,,,,,,,,,,,
58,Ce XLV,Ce,XLV,44,Cerium,Si,[Ne].3s2.3p2,3p2,3P0,3p 2P*<1/2>,3570,4,,,,,,,,,,,
58,Ce XLVI,Ce,XLVI,45,Cerium,Al,[Ne].3s2.3p,3p,2P*<1/2>,3s2 1S<0>,3672,4,,,,,,,,,,,
58,Ce XLVII,Ce,XLVII,46,Cerium,Mg,[Ne].3s2,3s2,1S0,3s 2S<1/2>,3865,4,,,,,,,,,,,
58,Ce XLVIII,Ce,XLVIII,47,Cerium,Na,[Ne].3s,3s,2S<1/2>,2p6 1S<0>,3963,4,,,,,,,,,,,
58,Ce XLIX,Ce,XLIX,48,Cerium,Ne,1s2.2s2.2p6,2p6,1S0,2p5 2P*<3/2>,9020,4,,,,,,,,,,,
58,Ce L,Ce,L,49,Cerium,F,1s2.2s2.2p5,2p5,2P*<3/2>,2p4 3P<2>,9269,4,,,,,,,,,,,
58,Ce LI,Ce,LI,50,Cerium,O,1s2.2s2.2p4,2p4,3P<2>,"2p2<1/2>.2p<3/2> (0,3/2)*<3/2>",9545,4,,,,,,,,,,,
58,Ce LII,Ce,LII,51,Cerium,N,1s2.2s2.2p3,2p2<1/2>.2p<3/2>,"(0,3/2)*<3/2>",2p2 3P<0>,9803,4,,,,,,,,,,,
58,Ce LIII,Ce,LIII,52,Cerium,C,1s2.2s2.2p2,2p2,3P0,2p 2P*<1/2>,10542,4,,,,,,,,,,,
58,Ce LIV,Ce,LIV,53,Cerium,B,1s2.2s2.2p,2p,2P*<1/2>,2s2 1S<0>,10840,5,,,,,,,,,,,
58,Ce LV,Ce,LV,54,Cerium,Be,1s2.2s2,2s2,1S0,2s 2S<1/2>,11210,5,,,,,,,,,,,
58,Ce LVI,Ce,LVI,55,Cerium,Li,1s2.2s,1s2.2s,2S<1/2>,1s2 1S<0>,11459.85,0.06,,,,,,,,,,,
58,Ce LVII,Ce,LVII,56,Cerium,He,1s2,1s2,1S0,1s 2S<1/2>,46840.31,0.05,,,,,,,,,,,
58,Ce LVIII,Ce,LVIII,57,Cerium,H,1s,1s,2S<1/2>,,47965.89,0.03,,,,,,,,,,,
59,Pr I,Pr,I,0,Praseodymium,Pr,[Xe].4f3.6s2,4f3.6s2,4I*<9/2>,"4f3.(4I*).6s (9/2,1/2)*<4>",5.4702,0.0004,,,,,,,,,,,
59,Pr II,Pr,II,1,Praseodymium,Ce,[Xe].4f3.6s,4f3.(4I*<9/2>).6s<1/2>,"(9/2,1/2)*<4>",4f3.5s2.5p6 4I*<9/2>,10.631,0.02,,,,,,,,,,,
59,Pr III,Pr,III,2,Praseodymium,La,[Xe].4f3,4f3,4I*<9/2>,4f2.5s2.5p6 3H<4>,21.6237,0.0025,,,,,,,,,,,
59,Pr IV,Pr,IV,3,Praseodymium,Ba,[Xe].4f2,4f2,3H<4>,4f.5s2.5p6 2F*<5/2>,38.981,0.025,,,,,,,,,,,
59,Pr V,Pr,V,4,Praseodymium,Cs,[Xe].4f,5p6.4f,2F*<5/2>,5s2.5p6 1S<0>,57.53,0.05,,,,,,,,,,,
59,Pr VI,Pr,VI,5,Praseodymium,Xe,[Cd].5p6,5s2.5p6,1S0,4f.5s2.5p4*,82,4,,,,,,,,,,,
59,Pr VII,Pr,VII,6,Praseodymium,I,[Cd].4f.5p4,4f.5s2.5p4,*,4f.5s2.5p3,97,5,,,,,,,,,,,
59,Pr VIII,Pr,VIII,7,Praseodymium,Te,[Cd].4f.5p3,4f.5s2.5p3,,4f.5s2.5p2*,112,6,,,,,,,,,,,
59,Pr IX,Pr,IX,8,Praseodymium,Sb,[Cd].4f.5p2,4f.5s2.5p2,*,5s2.5p2 3P<0>,131,7,,,,,,,,,,,
59,Pr X,Pr,X,9,Praseodymium,Sn,[Cd].5p2,5s2.5p2,3P0,5s2.5p 2P*<1/2>,148,7,,,,,,,,,,,
59,Pr XI,Pr,XI,10,Praseodymium,In,[Cd].5p,5s2.5p,2P*<1/2>,5s2 1S<0>,162,2.4,,,,,,,,,,,
59,Pr XII,Pr,XII,11,Praseodymium,Cd,[Kr].4d10.5s2,5s2,1S0,5s 2S<1/2>,196,2.5,,,,,,,,,,,
59,Pr XIII,Pr,XIII,12,Praseodymium,Ag,[Kr].4d10.5s,5s,2S<1/2>,4d10 1S<0>,217.02,0.12,,,,,,,,,,,
59,Pr XIV,Pr,XIV,13,Praseodymium,Pd,[Kr].4d10,4d10,1S0,4d9 2D<5/2>,350,3,,,,,,,,,,,
59,Pr XV,Pr,XV,14,Praseodymium,Rh,[Kr].4d9,4d9,2D<5/2>,4d8 3F<4>,378,3,,,,,,,,,,,
59,Pr XVI,Pr,XVI,15,Praseodymium,Ru,[Kr].4d8,4d8,3F<4>,4d7 4F<9/2>,412,3,,,,,,,,,,,
59,Pr XVII,Pr,XVII,16,Praseodymium,Tc,[Kr].4d7,4d7,4F<9/2>,4d6 5D<4>,445,3,,,,,,,,,,,
59,Pr XVIII,Pr,XVIII,17,Praseodymium,Mo,[Kr].4d6,4d6,5D<4>,4d5 6S<5/2>,478,3,,,,,,,,,,,
59,Pr XIX,Pr,XIX,18,Praseodymium,Nb,[Kr].4d5,4d5,6S<5/2>,4d4 5D<0>,516,3,,,,,,,,,,,
59,Pr XX,Pr,XX,19,Praseodymium,Zr,[Kr].4d4,4d4,5D0,4d3 4F<3/2>,554,4,,,,,,,,,,,
59,Pr XXI,Pr,XXI,20,Praseodymium,Y,[Kr].4d3,4d3,4F<3/2>,4d2 3F<2>,590,4,,,,,,,,,,,
59,Pr XXII,Pr,XXII,21,Praseodymium,Sr,[Kr].4d2,4d2,3F<2>,4d 2D<3/2>,627,4,,,,,,,,,,,
59,Pr XXIII,Pr,XXIII,22,Praseodymium,Rb,[Kr].4d,4d,2D<3/2>,4p6 1S<0>,663,4,,,,,,,,,,,
59,Pr XXIV,Pr,XXIV,23,Praseodymium,Kr,[Ar].3d10.4s2.4p6,4p6,1S0,4p5 2P*<3/2>,803,4,,,,,,,,,,,
59,Pr XXV,Pr,XXV,24,Praseodymium,Br,[Ar].3d10.4s2.4p5,4p5,2P*<3/2>,4p4 3P<2>,840,4,,,,,,,,,,,
59,Pr XXVI,Pr,XXVI,25,Praseodymium,Se,[Ar].3d10.4s2.4p4,4p4,3P<2>,4p3 4S*<3/2>,880,4,,,,,,,,,,,
59,Pr XXVII,Pr,XXVII,26,Praseodymium,As,[Ar].3d10.4s2.4p3,4p3,4S*<3/2>,4p2 3P<0>,920,4,,,,,,,,,,,
59,Pr XXVIII,Pr,XXVIII,27,Praseodymium,Ge,[Ar].3d10.4s2.4p2,4p2,3P0,4p 2P*<1/2>,985,4,,,,,,,,,,,
59,Pr XXIX,Pr,XXIX,28,Praseodymium,Ga,[Ar].3d10.4s2.4p,4p,2P*<1/2>,4s2 1S<0>,1028,4,,,,,,,,,,,
59,Pr XXX,Pr,XXX,29,Praseodymium,Zn,[Ar].3d10.4s2,4s2,1S0,4s 2S<1/2>,1124,4,,,,,,,,,,,
59,Pr XXXI,Pr,XXXI,30,Praseodymium,Cu,[Ar].3d10.4s,4s,2S<1/2>,3d10 1S<0>,1169.9,0.6,,,,,,,,,,,
59,Pr XXXII,Pr,XXXII,31,Praseodymium,Ni,[Ar].3d10,3d10,1S0,3d9 2D<5/2>,2019,4,,,,,,,,,,,
59,Pr XXXIII,Pr,XXXIII,32,Praseodymium,Co,[Ar].3d9,3d9,2D<5/2>,3d8 3F<4>,2108,4,,,,,,,,,,,
59,Pr XXXIV,Pr,XXXIV,33,Praseodymium,Fe,[Ar].3d8,3d8,3F<4>,3d7 4F<9/2>,2202,5,,,,,,,,,,,
59,Pr XXXV,Pr,XXXV,34,Praseodymium,Mn,[Ar].3d7,3d7,4F<9/2>,"3d-4.3d+2 (0,4)<4>",2304,5,,,,,,,,,,,
59,Pr XXXVI,Pr,XXXVI,35,Praseodymium,Cr,[Ar].3d6,3d-4.3d+2,"(0,4)<4>","3d-4.3d+ (0,5/2)<5/2>",2400,5,,,,,,,,,,,
59,Pr XXXVII,Pr,XXXVII,36,Praseodymium,V,[Ar].3d5,3d-4.3d+,"(0,5/2)<5/2>",3d4 5D<0>,2501,5,,,,,,,,,,,
59,Pr XXXVIII,Pr,XXXVIII,37,Praseodymium,Ti,[Ar].3d4,3d4,5D0,3d3 4F<3/2>,2628,4,,,,,,,,,,,
59,Pr XXXIX,Pr,XXXIX,38,Praseodymium,Sc,[Ar].3d3,3d3,4F<3/2>,3d2 3F<2>,2729,4,,,,,,,,,,,
59,Pr XL,Pr,XL,39,Praseodymium,Ca,[Ar].3d2,3d2,3F<2>,3d 2D<3/2>,2838,4,,,,,,,,,,,
59,Pr XLI,Pr,XLI,40,Praseodymium,K,[Ar].3d,3d,2D<3/2>,3p6 1S<0>,2941,4,,,,,,,,,,,
59,Pr XLII,Pr,XLII,41,Praseodymium,Ar,[Ne].3s2.3p6,3p6,1S0,3p5 2P*<3/2>,3227,4,,,,,,,,,,,
59,Pr XLIII,Pr,XLIII,42,Praseodymium,Cl,[Ne].3s2.3p5,3p5,2P*<3/2>,3p4 3P<2>,3319,4,,,,,,,,,,,
59,Pr XLIV,Pr,XLIV,43,Praseodymium,S,[Ne].3s2.3p4,3p4,3P<2>,3p3 2P*<3/2>,3419,4,,,,,,,,,,,
59,Pr XLV,Pr,XLV,44,Praseodymium,P,[Ne].3s2.3p3,3p3,2P*<3/2>,3p2 3P<0>,3512,4,,,,,,,,,,,
59,Pr XLVI,Pr,XLVI,45,Praseodymium,Si,[Ne].3s2.3p2,3p2,3P0,3p 2P*<1/2>,3729,4,,,,,,,,,,,
59,Pr XLVII,Pr,XLVII,46,Praseodymium,Al,[Ne].3s2.3p,3p,2P*<1/2>,3s2 1S<0>,3832,4,,,,,,,,,,,
59,Pr XLVIII,Pr,XLVIII,47,Praseodymium,Mg,[Ne].3s2,3s2,1S0,3s 2S<1/2>,4030,4,,,,,,,,,,,
59,Pr XLIX,Pr,XLIX,48,Praseodymium,Na,[Ne].3s,3s,2S<1/2>,2p6 1S<0>,4130,4,,,,,,,,,,,
59,Pr L,Pr,L,49,Praseodymium,Ne,1s2.2s2.2p6,2p6,1S0,2p5 2P*<3/2>,9378,4,,,,,,,,,,,
59,Pr LI,Pr,LI,50,Praseodymium,F,1s2.2s2.2p5,2p5,2P*<3/2>,2p4 3P<2>,9632,4,,,,,,,,,,,
59,Pr LII,Pr,LII,51,Praseodymium,O,1s2.2s2.2p4,2p4,3P<2>,"2p2<1/2>.2p<3/2> (0,3/2)*<3/2>",9913,4,,,,,,,,,,,
59,Pr LIII,Pr,LIII,52,Praseodymium,N,1s2.2s2.2p3,2p2<1/2>.2p<3/2>,"(0,3/2)*<3/2>",2p2 3P<0>,10175,4,,,,,,,,,,,
59,Pr LIV,Pr,LIV,53,Praseodymium,C,1s2.2s2.2p2,2p2,3P0,2p 2P*<1/2>,10959,5,,,,,,,,,,,
59,Pr LV,Pr,LV,54,Praseodymium,B,1s2.2s2.2p,2p,2P*<1/2>,2s2 1S<0>,11262,5,,,,,,,,,,,
59,Pr LVI,Pr,LVI,55,Praseodymium,Be,1s2.2s2,2s2,1S0,2s 2S<1/2>,11641,5,,,,,,,,,,,
59,Pr LVII,Pr,LVII,56,Praseodymium,Li,1s2.2s,1s2.2s,2S<1/2>,1s2 1S<0>,11895.89,0.06,,,,,,,,,,,
59,Pr LVIII,Pr,LVIII,57,Praseodymium,He,1s2,1s2,1S0,1s 2S<1/2>,48571.71,0.05,,,,,,,,,,,
59,Pr LIX,Pr,LIX,58,Praseodymium,H,1s,1s,2S<1/2>,,49722.44,0.04,,,,,,,,,,,
60,Nd I,Nd,I,0,Neodymium,Nd,[Xe].4f4.6s2,4f4.6s2,5I<4>,4f4.5s2.5p6.6s 6I*<7/2>,5.52475,0.00005,,,,,,,,,,,
60,Nd II,Nd,II,1,Neodymium,Pr,[Xe].4f4.6s,4f4.(5I).6s,6I<7/2>,4f4.5s2.5p6 5I<4>,10.783,0.02,,,,,,,,,,,
60,Nd III,Nd,III,2,Neodymium,Ce,[Xe].4f4,4f4,5I<4>,4f3.5s2.5p6 4I*<9/2>,22.09,0.04,,,,,,,,,,,
60,Nd IV,Nd,IV,3,Neodymium,La,[Xe].4f3,4f3,4I*<9/2>,4f2.5s2.5p6 3H<4>,40.6,0.04,,,,,,,,,,,
60,Nd V,Nd,V,4,Neodymium,Ba,[Xe].4f2,4f2.5s2.5p6,3H<4>,4f2.5s2.5p5*,60,0.3,,,,,,,,,,,
60,Nd VI,Nd,VI,5,Neodymium,Cs,[Cd].4f2.5p5,4f2.5s2.5p5,*,4f2.5s2.5p4,84,4,,,,,,,,,,,
60,Nd VII,Nd,VII,6,Neodymium,Xe,[Cd].4f2.5p4,4f2.5s2.5p4,,4f2.5s2.5p3*,99,5,,,,,,,,,,,
60,Nd VIII,Nd,VIII,7,Neodymium,I,[Cd].4f2.5p3,4f2.5s2.5p3,*,4f2.5s2.5p2,114,6,,,,,,,,,,,
60,Nd IX,Nd,IX,8,Neodymium,Te,[Cd].4f2.5p2,4f2.5s2.5p2,,4f2.5s2.5p*,136,7,,,,,,,,,,,
60,Nd X,Nd,X,9,Neodymium,Sb,[Cd].4f2.5p,4f2.5s2.5p,*,5s2.4f2,152,8,,,,,,,,,,,
60,Nd XI,Nd,XI,10,Neodymium,Sn,[Cd].4f2,5s2.4f2,,5s2.4f 2F*<5/2>,168,8,,,,,,,,,,,
60,Nd XII,Nd,XII,11,Neodymium,In,[Cd].4f,5s2.4f,2F*<5/2>,5s2 1S<0>,195,10,,,,,,,,,,,
60,Nd XIII,Nd,XIII,12,Neodymium,Cd,[Kr].4d10.5s2,5s2,1S0,5s 2S<1/2>,221,3,,,,,,,,,,,
60,Nd XIV,Nd,XIV,13,Neodymium,Ag,[Kr].4d10.5s,5s,2S<1/2>,4d10 1S<0>,243,0.2,,,,,,,,,,,
60,Nd XV,Nd,XV,14,Neodymium,Pd,[Kr].4d10,4d10,1S0,4d9 2D<5/2>,389,3,,,,,,,,,,,
60,Nd XVI,Nd,XVI,15,Neodymium,Rh,[Kr].4d9,4d9,2D<5/2>,4d8 3F<4>,420,3,,,,,,,,,,,
60,Nd XVII,Nd,XVII,16,Neodymium,Ru,[Kr].4d8,4d8,3F<4>,4d7 4F<9/2>,453,3,,,,,,,,,,,
60,Nd XVIII,Nd,XVIII,17,Neodymium,Tc,[Kr].4d7,4d7,4F<9/2>,4d6 5D<4>,489,3,,,,,,,,,,,
60,Nd XIX,Nd,XIX,18,Neodymium,Mo,[Kr].4d6,4d6,5D<4>,4d5 6S<5/2>,522,3,,,,,,,,,,,
60,Nd XX,Nd,XX,19,Neodymium,Nb,[Kr].4d5,4d5,6S<5/2>,4d4 5D<0>,562,4,,,,,,,,,,,
60,Nd XXI,Nd,XXI,20,Neodymium,Zr,[Kr].4d4,4d4,5D0,4d3 4F<3/2>,602,4,,,,,,,,,,,
60,Nd XXII,Nd,XXII,21,Neodymium,Y,[Kr].4d3,4d3,4F<3/2>,4d2 3F<2>,638,4,,,,,,,,,,,
60,Nd XXIII,Nd,XXIII,22,Neodymium,Sr,[Kr].4d2,4d2,3F<2>,4d 2D<3/2>,678,4,,,,,,,,,,,
60,Nd XXIV,Nd,XXIV,23,Neodymium,Rb,[Kr].4d,4d,2D<3/2>,4p6 1S<0>,714,4,,,,,,,,,,,
60,Nd XXV,Nd,XXV,24,Neodymium,Kr,[Ar].3d10.4s2.4p6,4p6,1S0,4p5 2P*<3/2>,859,4,,,,,,,,,,,
60,Nd XXVI,Nd,XXVI,25,Neodymium,Br,[Ar].3d10.4s2.4p5,4p5,2P*<3/2>,4p4 3P<2>,896,4,,,,,,,,,,,
60,Nd XXVII,Nd,XXVII,26,Neodymium,Se,[Ar].3d10.4s2.4p4,4p4,3P<2>,4p3 4S*<3/2>,939,4,,,,,,,,,,,
60,Nd XXVIII,Nd,XXVIII,27,Neodymium,As,[Ar].3d10.4s2.4p3,4p3,4S*<3/2>,4p2 3P<0>,978,4,,,,,,,,,,,
60,Nd XXIX,Nd,XXIX,28,Neodymium,Ge,[Ar].3d10.4s2.4p2,4p2,3P0,4p 2P*<1/2>,1049,4,,,,,,,,,,,
60,Nd XXX,Nd,XXX,29,Neodymium,Ga,[Ar].3d10.4s2.4p,4p,2P*<1/2>,4s2 1S<0>,1092,4,,,,,,,,,,,
60,Nd XXXI,Nd,XXXI,30,Neodymium,Zn,[Ar].3d10.4s2,4s2,1S0,4s 2S<1/2>,1191,4,,,,,,,,,,,
60,Nd XXXII,Nd,XXXII,31,Neodymium,Cu,[Ar].3d10.4s,4s,2S<1/2>,3d10 1S<0>,1238.42,0.17,,,,,,,,,,,
60,Nd XXXIII,Nd,XXXIII,32,Neodymium,Ni,[Ar].3d10,3d10,1S0,3d9 2D<5/2>,2134,4,,,,,,,,,,,
60,Nd XXXIV,Nd,XXXIV,33,Neodymium,Co,[Ar].3d9,3d9,2D<5/2>,3d8 3F<4>,2224,5,,,,,,,,,,,
60,Nd XXXV,Nd,XXXV,34,Neodymium,Fe,[Ar].3d8,3d8,3F<4>,3d7 4F<9/2>,2321,5,,,,,,,,,,,
60,Nd XXXVI,Nd,XXXVI,35,Neodymium,Mn,[Ar].3d7,3d7,4F<9/2>,"3d-4.3d+2 (0,4)<4>",2425,5,,,,,,,,,,,
60,Nd XXXVII,Nd,XXXVII,36,Neodymium,Cr,[Ar].3d6,3d-4.3d+2,"(0,4)<4>","3d-4.3d+ (0,5/2)<5/2>",2525,5,,,,,,,,,,,
60,Nd XXXVIII,Nd,XXXVIII,37,Neodymium,V,[Ar].3d5,3d-4.3d+,"(0,5/2)<5/2>",3d4 5D<0>,2627,4,,,,,,,,,,,
60,Nd XXXIX,Nd,XXXIX,38,Neodymium,Ti,[Ar].3d4,3d4,5D0,3d3 4F<3/2>,2758,4,,,,,,,,,,,
60,Nd XL,Nd,XL,39,Neodymium,Sc,[Ar].3d3,3d3,4F<3/2>,3d2 3F<2>,2861,4,,,,,,,,,,,
60,Nd XLI,Nd,XLI,40,Neodymium,Ca,[Ar].3d2,3d2,3F<2>,3d 2D<3/2>,2974,4,,,,,,,,,,,
60,Nd XLII,Nd,XLII,41,Neodymium,K,[Ar].3d,3d,2D<3/2>,3p6 1S<0>,3078,4,,,,,,,,,,,
60,Nd XLIII,Nd,XLIII,42,Neodymium,Ar,[Ne].3s2.3p6,3p6,1S0,3p5 2P*<3/2>,3371,4,,,,,,,,,,,
60,Nd XLIV,Nd,XLIV,43,Neodymium,Cl,[Ne].3s2.3p5,3p5,2P*<3/2>,3p4 3P<2>,3465,4,,,,,,,,,,,
60,Nd XLV,Nd,XLV,44,Neodymium,S,[Ne].3s2.3p4,3p4,3P<2>,3p3 2P*<3/2>,3567,4,,,,,,,,,,,
60,Nd XLVI,Nd,XLVI,45,Neodymium,P,[Ne].3s2.3p3,3p3,2P*<3/2>,3p2 3P<0>,3662,4,,,,,,,,,,,
60,Nd XLVII,Nd,XLVII,46,Neodymium,Si,[Ne].3s2.3p2,3p2,3P0,3p 2P*<1/2>,3891,4,,,,,,,,,,,
60,Nd XLVIII,Nd,XLVIII,47,Neodymium,Al,[Ne].3s2.3p,3p,2P*<1/2>,3s2 1S<0>,3997,4,,,,,,,,,,,
60,Nd XLIX,Nd,XLIX,48,Neodymium,Mg,[Ne].3s2,3s2,1S0,3s 2S<1/2>,4198,4,,,,,,,,,,,
60,Nd L,Nd,L,49,Neodymium,Na,[Ne].3s,3s,2S<1/2>,2p6 1S<0>,4302,4,,,,,,,,,,,
60,Nd LI,Nd,LI,50,Neodymium,Ne,1s2.2s2.2p6,2p6,1S0,2p5 2P*<3/2>,9742,4,,,,,,,,,,,
60,Nd LII,Nd,LII,51,Neodymium,F,1s2.2s2.2p5,2p5,2P*<3/2>,2p4 3P<2>,10002,4,,,,,,,,,,,
60,Nd LIII,Nd,LIII,52,Neodymium,O,1s2.2s2.2p4,2p4,3P<2>,"2p2<1/2>.2p<3/2> (0,3/2)*<3/2>",10288,4,,,,,,,,,,,
60,Nd LIV,Nd,LIV,53,Neodymium,N,1s2.2s2.2p3,2p2<1/2>.2p<3/2>,"(0,3/2)*<3/2>",2p2 3P<0>,10555,5,,,,,,,,,,,
60,Nd LV,Nd,LV,54,Neodymium,C,1s2.2s2.2p2,2p2,3P0,2p 2P*<1/2>,11384,5,,,,,,,,,,,
60,Nd LVI,Nd,LVI,55,Neodymium,B,1s2.2s2.2p,2p,2P*<1/2>,2s2 1S<0>,11694,5,,,,,,,,,,,
60,Nd LVII,Nd,LVII,56,Neodymium,Be,1s2.2s2,2s2,1S0,2s 2S<1/2>,12082,5,,,,,,,,,,,
60,Nd LVIII,Nd,LVIII,57,Neodymium,Li,1s2.2s,1s2.2s,2S<1/2>,1s2 1S<0>,12341.66,0.07,,,,,,,,,,,
60,Nd LIX,Nd,LIX,58,Neodymium,He,1s2,1s2,1S0,1s 2S<1/2>,50339.59,0.06,,,,,,,,,,,
60,Nd LX,Nd,LX,59,Neodymium,H,1s,1s,2S<1/2>,,51515.78,0.04,,,,,,,,,,,
61,Pm I,Pm,I,0,Promethium,Pm,[Xe].4f5.6s2,4f5.6s2,6H*<5/2>,4f5.5s2.5p6.6s 7H*<2>,5.58187,0.00004,,,,,,,,,,,
61,Pm II,Pm,II,1,Promethium,Nd,[Xe].4f5.6s,4f5.(6H*).6s,7H*<2>,4f5.5s2.5p6 6H*<5/2>,10.938,0.02,,,,,,,,,,,
61,Pm III,Pm,III,2,Promethium,Pr,[Xe].4f5,4f5.5s2.5p6,6H*<5/2>,4f4.5s2.5p6 5I<4>,22.44,0.08,,,,,,,,,,,