At. num,Sp. Name,Element,Valence,Ion Charge,El. Name,Isoel. Seq.,Ground Shells (a),Ground Config.,Ground Level,Ionized Level,Ionization Energy (b) (eV),Uncertainty (c) (eV),,,,,,,,,,,
109,Mt XLII,Mt,XLII,41,Meitnerium,Er,[Xe].4f14,4f14,1S0,4f14.5p5 2P*<3/2>,,,,,,,,,,,,,
109,Mt XLIII,Mt,XLIII,42,Meitnerium,Ho,[Cd].4f14.5p5,4f14.5p5,2P*<3/2>,4f14.5p4 3P<2>,,,,,,,,,,,,,
109,Mt XLIV,Mt,XLIV,43,Meitnerium,Dy,[Cd].4f14.5p4,4f14.5p4,3P<2>,4f14.5p3 2P*<3/2>,,,,,,,,,,,,,
109,Mt XLV,Mt,XLV,44,Meitnerium,Tb,[Cd].4f14.5p3,4f14.5p3,2P*<3/2>,4f14.5p2 3P<0>,,,,,,,,,,,,,
109,Mt XLVI,Mt,XLVI,45,Meitnerium,Gd,[Cd].4f14.5p2,4f14.5p2,3P0,4f14.5p 2P*<1/2>,,,,,,,,,,,,,
109,Mt XLVII,Mt,XLVII,46,Meitnerium,Eu,[Cd].4f14.5p,4f14.5p,2P*<1/2>,4f14 1S<0>,,,,,,,,,,,,,
109,Mt XLVIII,Mt,XLVIII,47,Meitnerium,Sm,[Cd].4f14,4f14,1S0,4f14.5s 2S<1/2>,,,,,,,,,,,,,
109,Mt XLIX,Mt,XLIX,48,Meitnerium,Pm,[Kr].4d10.4f14.5s,4f14.5s,2S<1/2>,4f14 1S<0>,,,,,,,,,,,,,
109,Mt L,Mt,L,49,Meitnerium,Nd,[Kr].4d10.4f14,4f14,1S0,4f13 2F*<7/2>,,,,,,,,,,,,,
109,Mt LI,Mt,LI,50,Meitnerium,Pr,[Kr].4d10.4f13,4f13,2F*<7/2>,4f12,,,,,,,,,,,,,
109,Mt LII,Mt,LII,51,Meitnerium,Ce,[Kr].4d10.4f12,4f12,,4f11 4I*<15/2>,,,,,,,,,,,,,
109,Mt LIII,Mt,LIII,52,Meitnerium,La,[Kr].4d10.4f11,4f11,4I*<15/2>,4f10 5I<8>,,,,,,,,,,,,,
109,Mt LIV,Mt,LIV,53,Meitnerium,Ba,[Kr].4d10.4f10,4f10,5I<8>,4f9 6H*<15/2>,,,,,,,,,,,,,
109,Mt LV,Mt,LV,54,Meitnerium,Cs,[Kr].4d10.4f9,4f9,6H*<15/2>,4f8 7F<6>,,,,,,,,,,,,,
109,Mt LVI,Mt,LVI,55,Meitnerium,Xe,[Kr].4d10.4f8,4f8,7F<6>,4f7 8S*<7/2>,,,,,,,,,,,,,
109,Mt LVII,Mt,LVII,56,Meitnerium,I,[Kr].4d10.4f7,4f7,8S*<7/2>,4f6 7F<0>,,,,,,,,,,,,,
109,Mt LVIII,Mt,LVIII,57,Meitnerium,Te,[Kr].4d10.4f6,4f6,7F0,4f5 6H*<5/2>,,,,,,,,,,,,,
109,Mt LIX,Mt,LIX,58,Meitnerium,Sb,[Kr].4d10.4f5,4f5,6H*<5/2>,4f4 5I<4>,,,,,,,,,,,,,
109,Mt LX,Mt,LX,59,Meitnerium,Sn,[Kr].4d10.4f4,4f4,5I<4>,4f3 4I*<9/2>,,,,,,,,,,,,,
109,Mt LXI,Mt,LXI,60,Meitnerium,In,[Kr].4d10.4f3,4f3,4I*<9/2>,4f2 3H<4>,,,,,,,,,,,,,
109,Mt LXII,Mt,LXII,61,Meitnerium,Cd,[Kr].4d10.4f2,4f2,3H<4>,4f 2F*<5/2>,,,,,,,,,,,,,
109,Mt LXIII,Mt,LXIII,62,Meitnerium,Ag,[Kr].4d10.4f,4f,2F*<5/2>,4d10 1S<0>,,,,,,,,,,,,,
109,Mt LXIV,Mt,LXIV,63,Meitnerium,Pd,[Kr].4d10,4d10,1S0,4d9 2D<5/2>,4464,19,,,,,,,,,,,
109,Mt LXV,Mt,LXV,64,Meitnerium,Rh,[Kr].4d9,4d9,2D<5/2>,4d8 3F<4>,4551,24,,,,,,,,,,,
109,Mt LXVI,Mt,LXVI,65,Meitnerium,Ru,[Kr].4d8,4d8,3F<4>,4d7 4F<9/2>,4640,30,,,,,,,,,,,
109,Mt LXVII,Mt,LXVII,66,Meitnerium,Tc,[Kr].4d7,4d7,4F<9/2>,4d6 5D<4>,4740,40,,,,,,,,,,,
109,Mt LXVIII,Mt,LXVIII,67,Meitnerium,Mo,[Kr].4d6,4d6,5D<4>,"4d-4.4d+ (0,5/2)<5/2>",4830,40,,,,,,,,,,,
109,Mt LXIX,Mt,LXIX,68,Meitnerium,Nb,[Kr].4d5,4d-4.4d+,"(0,5/2)<5/2>",4d4 5D<0>,4920,50,,,,,,,,,,,
109,Mt LXX,Mt,LXX,69,Meitnerium,Zr,[Kr].4d4,4d4,5D0,4d3 4F<3/2>,5160,50,,,,,,,,,,,
109,Mt LXXI,Mt,LXXI,70,Meitnerium,Y,[Kr].4d3,4d3,4F<3/2>,4d2 3F<2>,5250,60,,,,,,,,,,,
109,Mt LXXII,Mt,LXXII,71,Meitnerium,Sr,[Kr].4d2,4d2,3F<2>,4d 2D<3/2>,5360,60,,,,,,,,,,,
109,Mt LXXIII,Mt,LXXIII,72,Meitnerium,Rb,[Kr].4d,4d,2D<3/2>,4p6 1S<0>,5450,70,,,,,,,,,,,
109,Mt LXXIV,Mt,LXXIV,73,Meitnerium,Kr,[Ar].3d10.4s2.4p6,4p6,1S0,4p5 2P*<3/2>,5840,90,,,,,,,,,,,
109,Mt LXXV,Mt,LXXV,74,Meitnerium,Br,[Ar].3d10.4s2.4p5,4p5,2P*<3/2>,4p4 3P<2>,5930,90,,,,,,,,,,,
109,Mt LXXVI,Mt,LXXVI,75,Meitnerium,Se,[Ar].3d10.4s2.4p4,4p4,3P<2>,"4p-2.4p+ (0,3/2)*<3/2>",6030,100,,,,,,,,,,,
109,Mt LXXVII,Mt,LXXVII,76,Meitnerium,As,[Ar].3d10.4s2.4p3,4p-2.4p+,"(0,3/2)*<3/2>",4p2 3P<0>,6130,110,,,,,,,,,,,
109,Mt LXXVIII,Mt,LXXVIII,77,Meitnerium,Ge,[Ar].3d10.4s2.4p2,4p2,3P0,4p 2P*<1/2>,7030,120,,,,,,,,,,,
109,Mt LXXIX,Mt,LXXIX,78,Meitnerium,Ga,[Ar].3d10.4s2.4p,4p,2P*<1/2>,4s2 1S<0>,7150,120,,,,,,,,,,,
109,Mt LXXX,Mt,LXXX,79,Meitnerium,Zn,[Ar].3d10.4s2,4s2,1S0,4s 2S<1/2>,7430,140,,,,,,,,,,,
109,Mt LXXXI,Mt,LXXXI,80,Meitnerium,Cu,[Ar].3d10.4s,4s,2S<1/2>,3d10 1S<0>,7550,150,,,,,,,,,,,
109,Mt LXXXII,Mt,LXXXII,81,Meitnerium,Ni,[Ar].3d10,3d10,1S0,3d9 2D<5/2>,11460,160,,,,,,,,,,,
109,Mt LXXXIII,Mt,LXXXIII,82,Meitnerium,Co,[Ar].3d9,3d9,2D<5/2>,3d8 3F<4>,11660,170,,,,,,,,,,,
109,Mt LXXXIV,Mt,LXXXIV,83,Meitnerium,Fe,[Ar].3d8,3d8,3F<4>,3d7 4F<9/2>,11870,190,,,,,,,,,,,
109,Mt LXXXV,Mt,LXXXV,84,Meitnerium,Mn,[Ar].3d7,3d7,4F<9/2>,"3d-4.3d+2 (0,4)<4>",12100,200,,,,,,,,,,,
109,Mt LXXXVI,Mt,LXXXVI,85,Meitnerium,Cr,[Ar].3d6,3d-4.3d+2,"(0,4)<4>","3d-4.3d+ (0,5/2)<5/2>",12320,220,,,,,,,,,,,
109,Mt LXXXVII,Mt,LXXXVII,86,Meitnerium,V,[Ar].3d5,3d-4.3d+,"(0,5/2)<5/2>",3d4 5D<0>,12530,240,,,,,,,,,,,
109,Mt LXXXVIII,Mt,LXXXVIII,87,Meitnerium,Ti,[Ar].3d4,3d4,5D0,3d3 4F<3/2>,13200,250,,,,,,,,,,,
109,Mt LXXXIX,Mt,LXXXIX,88,Meitnerium,Sc,[Ar].3d3,3d3,4F<3/2>,3d2 3F<2>,13400,300,,,,,,,,,,,
109,Mt XC,Mt,XC,89,Meitnerium,Ca,[Ar].3d2,3d2,3F<2>,3d 2D<3/2>,13700,300,,,,,,,,,,,
109,Mt XCI,Mt,XCI,90,Meitnerium,K,[Ar].3d,3d,2D<3/2>,3p6 1S<0>,13900,300,,,,,,,,,,,
109,Mt XCII,Mt,XCII,91,Meitnerium,Ar,[Ne].3s2.3p6,3p6,1S0,3p5 2P*<3/2>,14500,300,,,,,,,,,,,
109,Mt XCIII,Mt,XCIII,92,Meitnerium,Cl,[Ne].3s2.3p5,3p5,2P*<3/2>,3p4 3P<2>,14700,400,,,,,,,,,,,
109,Mt XCIV,Mt,XCIV,93,Meitnerium,S,[Ne].3s2.3p4,3p4,3P<2>,3p3 2P*<3/2>,14900,400,,,,,,,,,,,
109,Mt XCV,Mt,XCV,94,Meitnerium,P,[Ne].3s2.3p3,3p3,2P*<3/2>,3p2 3P<0>,15100,400,,,,,,,,,,,
109,Mt XCVI,Mt,XCVI,95,Meitnerium,Si,[Ne].3s2.3p2,3p2,3P0,3p 2P*<1/2>,17900,400,,,,,,,,,,,
109,Mt XCVII,Mt,XCVII,96,Meitnerium,Al,[Ne].3s2.3p,3p,2P*<1/2>,3s2 1S<0>,18200,400,,,,,,,,,,,
109,Mt XCVIII,Mt,XCVIII,97,Meitnerium,Mg,[Ne].3s2,3s2,1S0,3s 2S<1/2>,18700,400,,,,,,,,,,,
109,Mt XCIX,Mt,XCIX,98,Meitnerium,Na,[Ne].3s,3s,2S<1/2>,2p6 1S<0>,18900,500,,,,,,,,,,,
109,Mt C,Mt,C,99,Meitnerium,Ne,1s2.2s2.2p6,2p6,1S0,2p5 2P*<3/2>,36700,500,,,,,,,,,,,
109,Mt CI,Mt,CI,100,Meitnerium,F,1s2.2s2.2p5,2p5,2P*<3/2>,2p4 3P<2>,37200,500,,,,,,,,,,,
109,Mt CII,Mt,CII,101,Meitnerium,O,1s2.2s2.2p4,2p4,3P<2>,"2p2<1/2>.2p<3/2> (0,3/2)*<3/2>",37800,500,,,,,,,,,,,
109,Mt CIII,Mt,CIII,102,Meitnerium,N,1s2.2s2.2p3,2p2<1/2>.2p<3/2>,"(0,3/2)*<3/2>",2p2 3P<0>,38300,500,,,,,,,,,,,
109,Mt CIV,Mt,CIV,103,Meitnerium,C,1s2.2s2.2p2,2p2,3P0,2p 2P*<1/2>,48500,500,,,,,,,,,,,
109,Mt CV,Mt,CV,104,Meitnerium,B,1s2.2s2.2p,2p,2P*<1/2>,2s2 1S<0>,49400,600,,,,,,,,,,,
109,Mt CVI,Mt,CVI,105,Meitnerium,Be,1s2.2s2,2s2,1S0,2s 2S<1/2>,50300,600,,,,,,,,,,,
109,Mt CVII,Mt,CVII,106,Meitnerium,Li,1s2.2s,1s2.2s,2S<1/2>,1s2 1S<0>,,,,,,,,,,,,,
109,Mt CVIII,Mt,CVIII,107,Meitnerium,He,1s2,1s2,1S0,1s 2S<1/2>,196392,14,,,,,,,,,,,
109,Mt CIX,Mt,CIX,108,Meitnerium,H,1s,1s,2S<1/2>,,199605,15,,,,,,,,,,,
110,Ds VI,Ds,VI,5,Darmstadtium,Db,[Rn].5f14.6d5,6d5,<5/2>,6d4 <0>,65,2,,,,,,,,,,,
110,Ds VII,Ds,VII,6,Darmstadtium,Rf,[Rn].5f14.6d4,6d4,0,6d3 <3/2>,,,,,,,,,,,,,
110,Ds VIII,Ds,VIII,7,Darmstadtium,Lr,[Rn].5f14.6d3,6d2.7s,<3/2>,6d2 <2>,,,,,,,,,,,,,
110,Ds IX,Ds,IX,8,Darmstadtium,No,[Rn].5f14.6d2,6d2,<2>,5f14.6d 2D<3/2>,112.9,2.2,,,,,,,,,,,
110,Ds X,Ds,X,9,Darmstadtium,Md,[Rn].5f14.6d,5f14.6d,2D<3/2>,5f14 1S<0>,128,2.2,,,,,,,,,,,
110,Ds XI,Ds,XI,10,Darmstadtium,Fm,[Rn].5f14,5f14,1S0,5f13 2F*<7/2>,216,2.4,,,,,,,,,,,
110,Ds XII,Ds,XII,11,Darmstadtium,Es,[Rn].5f13,5f13,2F*<7/2>,5f12 3H<6>,231,2.5,,,,,,,,,,,
110,Ds XIII,Ds,XIII,12,Darmstadtium,Cf,[Rn].5f12,5f12,3H<6>,5f11 4I*<15/2>,266,3,,,,,,,,,,,
110,Ds XIV,Ds,XIV,13,Darmstadtium,Bk,[Rn].5f11,5f11,4I*<15/2>,5f10 5I<8>,288,3,,,,,,,,,,,
110,Ds XV,Ds,XV,14,Darmstadtium,Cm,[Rn].5f10,5f10,5I<8>,5f9 6H*<15/2>,322,3,,,,,,,,,,,
110,Ds XVI,Ds,XVI,15,Darmstadtium,Am,[Rn].5f9,5f9,6H*<15/2>,5f8 7F<6>,352,3,,,,,,,,,,,
110,Ds XVII,Ds,XVII,16,Darmstadtium,Pu,[Rn].5f8,5f8,7F<6>,5f7 8S*<7/2>,380,3,,,,,,,,,,,
110,Ds XVIII,Ds,XVIII,17,Darmstadtium,Np,[Rn].5f7,5f7,8S*<7/2>,5f6 7F<0>,422,3,,,,,,,,,,,
110,Ds XIX,Ds,XIX,18,Darmstadtium,U,[Rn].5f6,5f6,7F0,5f5 6H*<5/2>,442,3,,,,,,,,,,,
110,Ds XX,Ds,XX,19,Darmstadtium,Pa,[Rn].5f5,5f5,6H*<5/2>,5f4 5I<4>,483,4,,,,,,,,,,,
110,Ds XXI,Ds,XXI,20,Darmstadtium,Th,[Rn].5f4,5f4,5I<4>,,,,,,,,,,,,,,
110,Ds XXXIII,Ds,XXXIII,32,Darmstadtium,Pt,[Xe].4f14.5d10,5d10,1S0,5d9 2D<5/2>,1087,4,,,,,,,,,,,
110,Ds XXXIV,Ds,XXXIV,33,Darmstadtium,Ir,[Xe].4f14.5d9,5d9,2D<5/2>,5d8 3F<4>,1125,5,,,,,,,,,,,
110,Ds XXXV,Ds,XXXV,34,Darmstadtium,Os,[Xe].4f14.5d8,5d8,3F<4>,5d7 4F<9/2>,1165,5,,,,,,,,,,,
110,Ds XXXVI,Ds,XXXVI,35,Darmstadtium,Re,[Xe].4f14.5d7,5d7,4F<9/2>,5d6 5D<4>,1208,5,,,,,,,,,,,
110,Ds XXXVII,Ds,XXXVII,36,Darmstadtium,W,[Xe].4f14.5d6,5d6,5D<4>,5d5 6S<5/2>,1250,5,,,,,,,,,,,
110,Ds XXXVIII,Ds,XXXVIII,37,Darmstadtium,Ta,[Xe].4f14.5d5,5d5,6S<5/2>,5d4 5D<0>,1290,4,,,,,,,,,,,
110,Ds XXXIX,Ds,XXXIX,38,Darmstadtium,Hf,[Xe].4f14.5d4,5d4,5D0,5d3 4F<3/2>,1369,4,,,,,,,,,,,
110,Ds XL,Ds,XL,39,Darmstadtium,Lu,[Xe].4f14.5d3,5d3,4F<3/2>,5d2 3F<2>,1412,4,,,,,,,,,,,
110,Ds XLI,Ds,XLI,40,Darmstadtium,Yb,[Xe].4f14.5d2,5d2,3F<2>,5d 2D<3/2>,1457,4,,,,,,,,,,,
110,Ds XLII,Ds,XLII,41,Darmstadtium,Tm,[Xe].4f14.5d,5d,2D<3/2>,4f14 1S<0>,1500,4,,,,,,,,,,,
110,Ds XLIII,Ds,XLIII,42,Darmstadtium,Er,[Xe].4f14,4f14,1S0,4f14.5p5 2P*<3/2>,,,,,,,,,,,,,
110,Ds XLIV,Ds,XLIV,43,Darmstadtium,Ho,[Cd].4f14.5p5,4f14.5p5,2P*<3/2>,4f14.5p4 3P<2>,,,,,,,,,,,,,
110,Ds XLV,Ds,XLV,44,Darmstadtium,Dy,[Cd].4f14.5p4,4f14.5p4,3P<2>,4f14.5p3 2P*<3/2>,,,,,,,,,,,,,
110,Ds XLVI,Ds,XLVI,45,Darmstadtium,Tb,[Cd].4f14.5p3,4f14.5p3,2P*<3/2>,4f14.5p2 3P<0>,,,,,,,,,,,,,
110,Ds XLVII,Ds,XLVII,46,Darmstadtium,Gd,[Cd].4f14.5p2,4f14.5p2,3P0,4f14.5p 2P*<1/2>,,,,,,,,,,,,,
110,Ds XLVIII,Ds,XLVIII,47,Darmstadtium,Eu,[Cd].4f14.5p,4f14.5p,2P*<1/2>,4f14 1S<0>,,,,,,,,,,,,,
110,Ds XLIX,Ds,XLIX,48,Darmstadtium,Sm,[Cd].4f14,4f14,1S0,4f14.5s 2S<1/2>,,,,,,,,,,,,,
110,Ds L,Ds,L,49,Darmstadtium,Pm,[Kr].4d10.4f14.5s,4f14.5s,2S<1/2>,4f14 1S<0>,,,,,,,,,,,,,
110,Ds LI,Ds,LI,50,Darmstadtium,Nd,[Kr].4d10.4f14,4f14,1S0,4f13 2F*<7/2>,,,,,,,,,,,,,
110,Ds LII,Ds,LII,51,Darmstadtium,Pr,[Kr].4d10.4f13,4f13,2F*<7/2>,4f12,,,,,,,,,,,,,
110,Ds LIII,Ds,LIII,52,Darmstadtium,Ce,[Kr].4d10.4f12,4f12,,4f11 4I*<15/2>,,,,,,,,,,,,,
110,Ds LIV,Ds,LIV,53,Darmstadtium,La,[Kr].4d10.4f11,4f11,4I*<15/2>,4f10 5I<8>,,,,,,,,,,,,,
110,Ds LV,Ds,LV,54,Darmstadtium,Ba,[Kr].4d10.4f10,4f10,5I<8>,4f9 6H*<15/2>,,,,,,,,,,,,,
110,Ds LVI,Ds,LVI,55,Darmstadtium,Cs,[Kr].4d10.4f9,4f9,6H*<15/2>,4f8 7F<6>,,,,,,,,,,,,,
110,Ds LVII,Ds,LVII,56,Darmstadtium,Xe,[Kr].4d10.4f8,4f8,7F<6>,4f7 8S*<7/2>,,,,,,,,,,,,,
110,Ds LVIII,Ds,LVIII,57,Darmstadtium,I,[Kr].4d10.4f7,4f7,8S*<7/2>,4f6 7F<0>,,,,,,,,,,,,,
110,Ds LIX,Ds,LIX,58,Darmstadtium,Te,[Kr].4d10.4f6,4f6,7F0,4f5 6H*<5/2>,,,,,,,,,,,,,
110,Ds LX,Ds,LX,59,Darmstadtium,Sb,[Kr].4d10.4f5,4f5,6H*<5/2>,4f4 5I<4>,,,,,,,,,,,,,
110,Ds LXI,Ds,LXI,60,Darmstadtium,Sn,[Kr].4d10.4f4,4f4,5I<4>,4f3 4I*<9/2>,,,,,,,,,,,,,
110,Ds LXII,Ds,LXII,61,Darmstadtium,In,[Kr].4d10.4f3,4f3,4I*<9/2>,4f2 3H<4>,,,,,,,,,,,,,
110,Ds LXIII,Ds,LXIII,62,Darmstadtium,Cd,[Kr].4d10.4f2,4f2,3H<4>,4f 2F*<5/2>,,,,,,,,,,,,,
110,Ds LXIV,Ds,LXIV,63,Darmstadtium,Ag,[Kr].4d10.4f,4f,2F*<5/2>,4d10 1S<0>,,,,,,,,,,,,,
110,Ds LXV,Ds,LXV,64,Darmstadtium,Pd,[Kr].4d10,4d10,1S0,4d9 2D<5/2>,4590,24,,,,,,,,,,,
110,Ds LXVI,Ds,LXVI,65,Darmstadtium,Rh,[Kr].4d9,4d9,2D<5/2>,4d8 3F<4>,4680,30,,,,,,,,,,,
110,Ds LXVII,Ds,LXVII,66,Darmstadtium,Ru,[Kr].4d8,4d8,3F<4>,4d7 4F<9/2>,4770,40,,,,,,,,,,,
110,Ds LXVIII,Ds,LXVIII,67,Darmstadtium,Tc,[Kr].4d7,4d7,4F<9/2>,4d6 5D<4>,4870,40,,,,,,,,,,,
110,Ds LXIX,Ds,LXIX,68,Darmstadtium,Mo,[Kr].4d6,4d6,5D<4>,"4d-4.4d+ (0,5/2)<5/2>",4960,50,,,,,,,,,,,
110,Ds LXX,Ds,LXX,69,Darmstadtium,Nb,[Kr].4d5,4d-4.4d+,"(0,5/2)<5/2>",4d4 5D<0>,5060,50,,,,,,,,,,,
110,Ds LXXI,Ds,LXXI,70,Darmstadtium,Zr,[Kr].4d4,4d4,5D0,4d3 4F<3/2>,5300,60,,,,,,,,,,,
110,Ds LXXII,Ds,LXXII,71,Darmstadtium,Y,[Kr].4d3,4d3,4F<3/2>,4d2 3F<2>,5400,60,,,,,,,,,,,
110,Ds LXXIII,Ds,LXXIII,72,Darmstadtium,Sr,[Kr].4d2,4d2,3F<2>,4d 2D<3/2>,5500,70,,,,,,,,,,,
110,Ds LXXIV,Ds,LXXIV,73,Darmstadtium,Rb,[Kr].4d,4d,2D<3/2>,4p6 1S<0>,5600,90,,,,,,,,,,,
110,Ds LXXV,Ds,LXXV,74,Darmstadtium,Kr,[Ar].3d10.4s2.4p6,4p6,1S0,4p5 2P*<3/2>,5990,90,,,,,,,,,,,
110,Ds LXXVI,Ds,LXXVI,75,Darmstadtium,Br,[Ar].3d10.4s2.4p5,4p5,2P*<3/2>,4p4 3P<2>,6080,100,,,,,,,,,,,
110,Ds LXXVII,Ds,LXXVII,76,Darmstadtium,Se,[Ar].3d10.4s2.4p4,4p4,3P<2>,"4p-2.4p+ (0,3/2)*<3/2>",6190,110,,,,,,,,,,,
110,Ds LXXVIII,Ds,LXXVIII,77,Darmstadtium,As,[Ar].3d10.4s2.4p3,4p-2.4p+,"(0,3/2)*<3/2>",4p2 3P<0>,6280,120,,,,,,,,,,,
110,Ds LXXIX,Ds,LXXIX,78,Darmstadtium,Ge,[Ar].3d10.4s2.4p2,4p2,3P0,4p 2P*<1/2>,7230,120,,,,,,,,,,,
110,Ds LXXX,Ds,LXXX,79,Darmstadtium,Ga,[Ar].3d10.4s2.4p,4p,2P*<1/2>,4s2 1S<0>,7350,140,,,,,,,,,,,
110,Ds LXXXI,Ds,LXXXI,80,Darmstadtium,Zn,[Ar].3d10.4s2,4s2,1S0,4s 2S<1/2>,7640,150,,,,,,,,,,,
110,Ds LXXXII,Ds,LXXXII,81,Darmstadtium,Cu,[Ar].3d10.4s,4s,2S<1/2>,3d10 1S<0>,7750,160,,,,,,,,,,,
110,Ds LXXXIII,Ds,LXXXIII,82,Darmstadtium,Ni,[Ar].3d10,3d10,1S0,3d9 2D<5/2>,11730,170,,,,,,,,,,,
110,Ds LXXXIV,Ds,LXXXIV,83,Darmstadtium,Co,[Ar].3d9,3d9,2D<5/2>,3d8 3F<4>,11930,190,,,,,,,,,,,
110,Ds LXXXV,Ds,LXXXV,84,Darmstadtium,Fe,[Ar].3d8,3d8,3F<4>,3d7 4F<9/2>,12140,200,,,,,,,,,,,
110,Ds LXXXVI,Ds,LXXXVI,85,Darmstadtium,Mn,[Ar].3d7,3d7,4F<9/2>,"3d-4.3d+2 (0,4)<4>",12380,220,,,,,,,,,,,
110,Ds LXXXVII,Ds,LXXXVII,86,Darmstadtium,Cr,[Ar].3d6,3d-4.3d+2,"(0,4)<4>","3d-4.3d+ (0,5/2)<5/2>",12600,240,,,,,,,,,,,
110,Ds LXXXVIII,Ds,LXXXVIII,87,Darmstadtium,V,[Ar].3d5,3d-4.3d+,"(0,5/2)<5/2>",3d4 5D<0>,12810,250,,,,,,,,,,,
110,Ds LXXXIX,Ds,LXXXIX,88,Darmstadtium,Ti,[Ar].3d4,3d4,5D0,3d3 4F<3/2>,13500,300,,,,,,,,,,,
110,Ds XC,Ds,XC,89,Darmstadtium,Sc,[Ar].3d3,3d3,4F<3/2>,3d2 3F<2>,13700,300,,,,,,,,,,,
110,Ds XCI,Ds,XCI,90,Darmstadtium,Ca,[Ar].3d2,3d2,3F<2>,3d 2D<3/2>,14000,300,,,,,,,,,,,
110,Ds XCII,Ds,XCII,91,Darmstadtium,K,[Ar].3d,3d,2D<3/2>,3p6 1S<0>,14200,300,,,,,,,,,,,
110,Ds XCIII,Ds,XCIII,92,Darmstadtium,Ar,[Ne].3s2.3p6,3p6,1S0,3p5 2P*<3/2>,14800,400,,,,,,,,,,,
110,Ds XCIV,Ds,XCIV,93,Darmstadtium,Cl,[Ne].3s2.3p5,3p5,2P*<3/2>,3p4 3P<2>,15000,400,,,,,,,,,,,
110,Ds XCV,Ds,XCV,94,Darmstadtium,S,[Ne].3s2.3p4,3p4,3P<2>,3p3 2P*<3/2>,15300,400,,,,,,,,,,,
110,Ds XCVI,Ds,XCVI,95,Darmstadtium,P,[Ne].3s2.3p3,3p3,2P*<3/2>,3p2 3P<0>,15500,400,,,,,,,,,,,
110,Ds XCVII,Ds,XCVII,96,Darmstadtium,Si,[Ne].3s2.3p2,3p2,3P0,3p 2P*<1/2>,18400,400,,,,,,,,,,,
110,Ds XCVIII,Ds,XCVIII,97,Darmstadtium,Al,[Ne].3s2.3p,3p,2P*<1/2>,3s2 1S<0>,18600,400,,,,,,,,,,,
110,Ds XCIX,Ds,XCIX,98,Darmstadtium,Mg,[Ne].3s2,3s2,1S0,3s 2S<1/2>,19100,500,,,,,,,,,,,
110,Ds C,Ds,C,99,Darmstadtium,Na,[Ne].3s,3s,2S<1/2>,2p6 1S<0>,19400,500,,,,,,,,,,,
110,Ds CI,Ds,CI,100,Darmstadtium,Ne,1s2.2s2.2p6,2p6,1S0,2p5 2P*<3/2>,37400,500,,,,,,,,,,,
110,Ds CII,Ds,CII,101,Darmstadtium,F,1s2.2s2.2p5,2p5,2P*<3/2>,2p4 3P<2>,37900,500,,,,,,,,,,,
110,Ds CIII,Ds,CIII,102,Darmstadtium,O,1s2.2s2.2p4,2p4,3P<2>,"2p2<1/2>.2p<3/2> (0,3/2)*<3/2>",38500,500,,,,,,,,,,,
110,Ds CIV,Ds,CIV,103,Darmstadtium,N,1s2.2s2.2p3,2p2<1/2>.2p<3/2>,"(0,3/2)*<3/2>",2p2 3P<0>,39100,500,,,,,,,,,,,
110,Ds CV,Ds,CV,104,Darmstadtium,C,1s2.2s2.2p2,2p2,3P0,2p 2P*<1/2>,49800,600,,,,,,,,,,,
110,Ds CVI,Ds,CVI,105,Darmstadtium,B,1s2.2s2.2p,2p,2P*<1/2>,2s2 1S<0>,50700,600,,,,,,,,,,,
110,Ds CVII,Ds,CVII,106,Darmstadtium,Be,1s2.2s2,2s2,1S0,2s 2S<1/2>,51600,600,,,,,,,,,,,
110,Ds CVIII,Ds,CVIII,107,Darmstadtium,Li,1s2.2s,1s2.2s,2S<1/2>,1s2 1S<0>,,,,,,,,,,,,,
110,Ds CIX,Ds,CIX,108,Darmstadtium,He,1s2,1s2,1S0,1s 2S<1/2>,201112,15,,,,,,,,,,,
110,Ds CX,Ds,CX,109,Darmstadtium,H,1s,1s,2S<1/2>,,204394,16,,,,,,,,,,,
Notes:,,,,,,,,,,,,,,,,,,,,,,,
(a) Designations used in the ground shell lists:,,,,,,,,,,,,,,,,,,,,,,,
     [Ne] = 1s2.2s2.2p6,,,,,,,,,,,,,,,,,,,,,,,
     [Ar] = 1s2.2s2.2p6.3s2.3p6,,,,,,,,,,,,,,,,,,,,,,,
     [Kr] = 1s2.2s2.2p6.3s2.3p6.3d10.4s2.4p6,,,,,,,,,,,,,,,,,,,,,,,
     [Cd] = 1s2.2s2.2p6.3s2.3p6.3d10.4s2.4p6.4d10.5s2,,,,,,,,,,,,,,,,,,,,,,,
     [Xe] = 1s2.2s2.2p6.3s2.3p6.3d10.4s2.4p6.4d10.5s2.5p6,,,,,,,,,,,,,,,,,,,,,,,
     [Hg] = 1s2.2s2.2p6.3s2.3p6.3d10.4s2.4p6.4d10.5s2.5p6.4f14.5d10.6s2,,,,,,,,,,,,,,,,,,,,,,,
     [Rn] = 1s2.2s2.2p6.3s2.3p6.3d10.4s2.4p6.4d10.5s2.5p6.4f14.5d10.6s2.6p6,,,,,,,,,,,,,,,,,,,,,,,
(b) If the listed ionization energy is blank, it is unknown. Only the ground state is known.,,it,,,,,,,,,,,,is,unknown.,Only,the,ground,state,is,known.,known.
(c) Uncertainties of some of the listed values are unknown. ,,,,,,,,,,,,,,,,,,,,,,,