At. num,Sp. Name,Element,Valence,Ion Charge,El. Name,Isoel. Seq.,Ground Shells (a),Ground Config.,Ground Level,Ionized Level,Ionization Energy (b) (eV),Uncertainty (c) (eV),,,,,,,,,,,
77,Ir XL,Ir,XL,39,Iridium,Sr,[Kr].4d2,4d2,3F<2>,4d 2D<3/2>,1801,4,,,,,,,,,,,
77,Ir XLI,Ir,XLI,40,Iridium,Rb,[Kr].4d,4d,2D<3/2>,4p6 1S<0>,1857,4,,,,,,,,,,,
77,Ir XLII,Ir,XLII,41,Iridium,Kr,[Ar].3d10.4s2.4p6,4p6,1S0,4p5 2P*<3/2>,2083,4,,,,,,,,,,,
77,Ir XLIII,Ir,XLIII,42,Iridium,Br,[Ar].3d10.4s2.4p5,4p5,2P*<3/2>,4p4 3P<2>,2139,4,,,,,,,,,,,
77,Ir XLIV,Ir,XLIV,43,Iridium,Se,[Ar].3d10.4s2.4p4,4p4,3P<2>,"4p-2.4p+ (0,3/2)*<3/2>",2201,4,,,,,,,,,,,
77,Ir XLV,Ir,XLV,44,Iridium,As,[Ar].3d10.4s2.4p3,4p-2.4p+,"(0,3/2)*<3/2>",4p2 3P<0>,2258,4,,,,,,,,,,,
77,Ir XLVI,Ir,XLVI,45,Iridium,Ge,[Ar].3d10.4s2.4p2,4p2,3P0,4p 2P*<1/2>,2435,4,,,,,,,,,,,
77,Ir XLVII,Ir,XLVII,46,Iridium,Ga,[Ar].3d10.4s2.4p,4p,2P*<1/2>,4s2 1S<0>,2500,4,,,,,,,,,,,
77,Ir XLVIII,Ir,XLVIII,47,Iridium,Zn,[Ar].3d10.4s2,4s2,1S0,4s 2S<1/2>,2656,4,,,,,,,,,,,
77,Ir XLIX,Ir,XLIX,48,Iridium,Cu,[Ar].3d10.4s,4s,2S<1/2>,3d10 1S<0>,2720.4,1.4,,,,,,,,,,,
77,Ir L,Ir,L,49,Iridium,Ni,[Ar].3d10,3d10,1S0,3d9 2D<5/2>,4540,4,,,,,,,,,,,
77,Ir LI,Ir,LI,50,Iridium,Co,[Ar].3d9,3d9,2D<5/2>,3d8 3F<4>,4668,4,,,,,,,,,,,
77,Ir LII,Ir,LII,51,Iridium,Fe,[Ar].3d8,3d8,3F<4>,3d7 4F<9/2>,4806,4,,,,,,,,,,,
77,Ir LIII,Ir,LIII,52,Iridium,Mn,[Ar].3d7,3d7,4F<9/2>,"3d-4.3d+2 (0,4)<4>",4952,4,,,,,,,,,,,
77,Ir LIV,Ir,LIV,53,Iridium,Cr,[Ar].3d6,3d-4.3d+2,"(0,4)<4>","3d-4.3d+ (0,5/2)<5/2>",5092,5,,,,,,,,,,,
77,Ir LV,Ir,LV,54,Iridium,V,[Ar].3d5,3d-4.3d+,"(0,5/2)<5/2>",3d4 5D<0>,5229,5,,,,,,,,,,,
77,Ir LVI,Ir,LVI,55,Iridium,Ti,[Ar].3d4,3d4,5D0,3d3 4F<3/2>,5466,5,,,,,,,,,,,
77,Ir LVII,Ir,LVII,56,Iridium,Sc,[Ar].3d3,3d3,4F<3/2>,3d2 3F<2>,5609,5,,,,,,,,,,,
77,Ir LVIII,Ir,LVIII,57,Iridium,Ca,[Ar].3d2,3d2,3F<2>,3d 2D<3/2>,5765,6,,,,,,,,,,,
77,Ir LIX,Ir,LIX,58,Iridium,K,[Ar].3d,3d,2D<3/2>,3p6 1S<0>,5910,6,,,,,,,,,,,
77,Ir LX,Ir,LX,59,Iridium,Ar,[Ne].3s2.3p6,3p6,1S0,3p5 2P*<3/2>,6315,7,,,,,,,,,,,
77,Ir LXI,Ir,LXI,60,Iridium,Cl,[Ne].3s2.3p5,3p5,2P*<3/2>,3p4 3P<2>,6441,10,,,,,,,,,,,
77,Ir LXII,Ir,LXII,61,Iridium,S,[Ne].3s2.3p4,3p4,3P<2>,3p3 2P*<3/2>,6580,12,,,,,,,,,,,
77,Ir LXIII,Ir,LXIII,62,Iridium,P,[Ne].3s2.3p3,3p3,2P*<3/2>,3p2 3P<0>,6708,15,,,,,,,,,,,
77,Ir LXIV,Ir,LXIV,63,Iridium,Si,[Ne].3s2.3p2,3p2,3P0,3p 2P*<1/2>,7274,19,,,,,,,,,,,
77,Ir LXV,Ir,LXV,64,Iridium,Al,[Ne].3s2.3p,3p,2P*<1/2>,3s2 1S<0>,7421,24,,,,,,,,,,,
77,Ir LXVI,Ir,LXVI,65,Iridium,Mg,[Ne].3s2,3s2,1S0,3s 2S<1/2>,7710,30,,,,,,,,,,,
77,Ir LXVII,Ir,LXVII,66,Iridium,Na,[Ne].3s,3s,2S<1/2>,2p6 1S<0>,7850,40,,,,,,,,,,,
77,Ir LXVIII,Ir,LXVIII,67,Iridium,Ne,1s2.2s2.2p6,2p6,1S0,2p5 2P*<3/2>,17040,40,,,,,,,,,,,
77,Ir LXIX,Ir,LXIX,68,Iridium,F,1s2.2s2.2p5,2p5,2P*<3/2>,2p4 3P<2>,17390,50,,,,,,,,,,,
77,Ir LXX,Ir,LXX,69,Iridium,O,1s2.2s2.2p4,2p4,3P<2>,"2p2<1/2>.2p<3/2> (0,3/2)*<3/2>",17770,50,,,,,,,,,,,
77,Ir LXXI,Ir,LXXI,70,Iridium,N,1s2.2s2.2p3,2p2<1/2>.2p<3/2>,"(0,3/2)*<3/2>",2p2 3P<0>,18120,60,,,,,,,,,,,
77,Ir LXXII,Ir,LXXII,71,Iridium,C,1s2.2s2.2p2,2p2,3P0,2p 2P*<1/2>,20210,60,,,,,,,,,,,
77,Ir LXXIII,Ir,LXXIII,72,Iridium,B,1s2.2s2.2p,2p,2P*<1/2>,2s2 1S<0>,20650,70,,,,,,,,,,,
77,Ir LXXIV,Ir,LXXIV,73,Iridium,Be,1s2.2s2,2s2,1S0,2s 2S<1/2>,21200,90,,,,,,,,,,,
77,Ir LXXV,Ir,LXXV,74,Iridium,Li,1s2.2s,1s2.2s,2S<1/2>,1s2 1S<0>,21556.6,0.24,,,,,,,,,,,
77,Ir LXXVI,Ir,LXXVI,75,Iridium,He,1s2,1s2,1S0,1s 2S<1/2>,86442.44,0.25,,,,,,,,,,,
77,Ir LXXVII,Ir,LXXVII,76,Iridium,H,1s,1s,2S<1/2>,,88113.6,1.4,,,,,,,,,,,
78,Pt I,Pt,I,0,Platinum,Pt,[Xe].4f14.5d9.6s,5d9.6s,3D<3>,5d9 2D<5/2>,8.95883,0.0001,,,,,,,,,,,
78,Pt II,Pt,II,1,Platinum,Ir,[Xe].4f14.5d9,5d9,2D<5/2>,5d8 3F<4>,18.56,0.12,,,,,,,,,,,
78,Pt III,Pt,III,2,Platinum,Os,[Xe].4f14.5d8,5d8,3F<4>,5d7 4F<9/2>,29,1.6,,,,,,,,,,,
78,Pt IV,Pt,IV,3,Platinum,Re,[Xe].4f14.5d7,5d7,4F<9/2>,5d6 5D<4>,43,1.7,,,,,,,,,,,
78,Pt V,Pt,V,4,Platinum,W,[Xe].4f14.5d6,5d6,5D<4>,5d5 6S<5/2>,56,1.9,,,,,,,,,,,
78,Pt VI,Pt,VI,5,Platinum,Ta,[Xe].4f14.5d5,5d5,6S<5/2>,5d4 5D<0>,75,2,,,,,,,,,,,
78,Pt VII,Pt,VII,6,Platinum,Hf,[Xe].4f14.5d4,5d4,5D0,5d3 4F<3/2>,91,2,,,,,,,,,,,
78,Pt VIII,Pt,VIII,7,Platinum,Lu,[Xe].4f14.5d3,5d3,4F<3/2>,5d2 3F<2>,109,2.1,,,,,,,,,,,
78,Pt IX,Pt,IX,8,Platinum,Yb,[Xe].4f14.5d2,5d2,3F<2>,5d 2D<3/2>,126,2.2,,,,,,,,,,,
78,Pt X,Pt,X,9,Platinum,Tm,[Xe].4f14.5d,5d,2D<3/2>,4f14 1S<0>,144.9,1.1,,,,,,,,,,,
78,Pt XI,Pt,XI,10,Platinum,Er,[Xe].4f14,4f14,1S0,4f14.5p5 2P*<3/2>,220.4,0.9,,,,,,,,,,,
78,Pt XII,Pt,XII,11,Platinum,Ho,[Cd].4f14.5p5,4f14.5p5,2P*<3/2>,4f14.5p4 3P<2>,245,12,,,,,,,,,,,
78,Pt XIII,Pt,XIII,12,Platinum,Dy,[Cd].4f14.5p4,4f14.5p4,3P<2>,4f14.5p3 2P*<3/2>,269,14,,,,,,,,,,,
78,Pt XIV,Pt,XIV,13,Platinum,Tb,[Cd].4f14.5p3,4f14.5p3,2P*<3/2>,4f14.5p2 3P<0>,293,15,,,,,,,,,,,
78,Pt XV,Pt,XV,14,Platinum,Gd,[Cd].4f14.5p2,4f14.5p2,3P0,4f14.5p 2P*<1/2>,332,16,,,,,,,,,,,
78,Pt XVI,Pt,XVI,15,Platinum,Eu,[Cd].4f14.5p,4f14.5p,2P*<1/2>,4f14 1S<0>,358,17,,,,,,,,,,,
78,Pt XVII,Pt,XVII,16,Platinum,Sm,[Cd].4f14,4f14,1S0,4f13.5s2 2F*<7/2>,392,20,,,,,,,,,,,
78,Pt XVIII,Pt,XVIII,17,Platinum,Pm,[Cd].4f13,4f13.5s2,2F*<7/2>,4f12.5s2 3H<6>,445,22,,,,,,,,,,,
78,Pt XIX,Pt,XIX,18,Platinum,Nd,[Cd].4f12,4f12.5s2,3H<6>,4f12.5s,479,24,,,,,,,,,,,
78,Pt XX,Pt,XX,19,Platinum,Pr,[Kr].4d10.4f12.5s,4f12.5s,,4f12,507,25,,,,,,,,,,,
78,Pt XXI,Pt,XXI,20,Platinum,Ce,[Kr].4d10.4f12,4f12,,4f11 4I*<15/2>,550,30,,,,,,,,,,,
78,Pt XXII,Pt,XXII,21,Platinum,La,[Kr].4d10.4f11,4f11,4I*<15/2>,4f10 5I<8>,610,30,,,,,,,,,,,
78,Pt XXIII,Pt,XXIII,22,Platinum,Ba,[Kr].4d10.4f10,4f10,5I<8>,4f9 6H*<15/2>,660,30,,,,,,,,,,,
78,Pt XXIV,Pt,XXIV,23,Platinum,Cs,[Kr].4d10.4f9,4f9,6H*<15/2>,4f8 7F<6>,710,40,,,,,,,,,,,
78,Pt XXV,Pt,XXV,24,Platinum,Xe,[Kr].4d10.4f8,4f8,7F<6>,4f7 8S*<7/2>,760,40,,,,,,,,,,,
78,Pt XXVI,Pt,XXVI,25,Platinum,I,[Kr].4d10.4f7,4f7,8S*<7/2>,4f6 7F<0>,820,40,,,,,,,,,,,
78,Pt XXVII,Pt,XXVII,26,Platinum,Te,[Kr].4d10.4f6,4f6,7F0,4f5 6H*<5/2>,870,40,,,,,,,,,,,
78,Pt XXVIII,Pt,XXVIII,27,Platinum,Sb,[Kr].4d10.4f5,4f5,6H*<5/2>,4f4 5I<4>,930,50,,,,,,,,,,,
78,Pt XXIX,Pt,XXIX,28,Platinum,Sn,[Kr].4d10.4f4,4f4,5I<4>,4f3 4I*<9/2>,980,50,,,,,,,,,,,
78,Pt XXX,Pt,XXX,29,Platinum,In,[Kr].4d10.4f3,4f3,4I*<9/2>,4f2 3H<4>,1040,50,,,,,,,,,,,
78,Pt XXXI,Pt,XXXI,30,Platinum,Cd,[Kr].4d10.4f2,4f2,3H<4>,4f 2F*<5/2>,1090,50,,,,,,,,,,,
78,Pt XXXII,Pt,XXXII,31,Platinum,Ag,[Kr].4d10.4f,4f,2F*<5/2>,4d10 1S<0>,1140,60,,,,,,,,,,,
78,Pt XXXIII,Pt,XXXIII,32,Platinum,Pd,[Kr].4d10,4d10,1S0,4d9 2D<5/2>,1402,4,,,,,,,,,,,
78,Pt XXXIV,Pt,XXXIV,33,Platinum,Rh,[Kr].4d9,4d9,2D<5/2>,4d8 3F<4>,1454,5,,,,,,,,,,,
78,Pt XXXV,Pt,XXXV,34,Platinum,Ru,[Kr].4d8,4d8,3F<4>,4d7 4F<9/2>,1509,5,,,,,,,,,,,
78,Pt XXXVI,Pt,XXXVI,35,Platinum,Tc,[Kr].4d7,4d7,4F<9/2>,4d6 5D<4>,1567,5,,,,,,,,,,,
78,Pt XXXVII,Pt,XXXVII,36,Platinum,Mo,[Kr].4d6,4d6,5D<4>,"4d-4.4d+ (0,5/2)<5/2>",1624,5,,,,,,,,,,,
78,Pt XXXVIII,Pt,XXXVIII,37,Platinum,Nb,[Kr].4d5,4d-4.4d+,"(0,5/2)<5/2>",4d4 5D<0>,1680,4,,,,,,,,,,,
78,Pt XXXIX,Pt,XXXIX,38,Platinum,Zr,[Kr].4d4,4d4,5D0,4d3 4F<3/2>,1763,4,,,,,,,,,,,
78,Pt XL,Pt,XL,39,Platinum,Y,[Kr].4d3,4d3,4F<3/2>,4d2 3F<2>,1821,4,,,,,,,,,,,
78,Pt XLI,Pt,XLI,40,Platinum,Sr,[Kr].4d2,4d2,3F<2>,4d 2D<3/2>,1883,4,,,,,,,,,,,
78,Pt XLII,Pt,XLII,41,Platinum,Rb,[Kr].4d,4d,2D<3/2>,4p6 1S<0>,1941,4,,,,,,,,,,,
78,Pt XLIII,Pt,XLIII,42,Platinum,Kr,[Ar].3d10.4s2.4p6,4p6,1S0,4p5 2P*<3/2>,2171,4,,,,,,,,,,,
78,Pt XLIV,Pt,XLIV,43,Platinum,Br,[Ar].3d10.4s2.4p5,4p5,2P*<3/2>,4p4 3P<2>,2228,4,,,,,,,,,,,
78,Pt XLV,Pt,XLV,44,Platinum,Se,[Ar].3d10.4s2.4p4,4p4,3P<2>,"4p-2.4p+ (0,3/2)*<3/2>",2291,4,,,,,,,,,,,
78,Pt XLVI,Pt,XLVI,45,Platinum,As,[Ar].3d10.4s2.4p3,4p-2.4p+,"(0,3/2)*<3/2>",4p2 3P<0>,2350,4,,,,,,,,,,,
78,Pt XLVII,Pt,XLVII,46,Platinum,Ge,[Ar].3d10.4s2.4p2,4p2,3P0,4p 2P*<1/2>,2536,4,,,,,,,,,,,
78,Pt XLVIII,Pt,XLVIII,47,Platinum,Ga,[Ar].3d10.4s2.4p,4p,2P*<1/2>,4s2 1S<0>,2603,4,,,,,,,,,,,
78,Pt XLIX,Pt,XLIX,48,Platinum,Zn,[Ar].3d10.4s2,4s2,1S0,4s 2S<1/2>,2762,4,,,,,,,,,,,
78,Pt L,Pt,L,49,Platinum,Cu,[Ar].3d10.4s,4s,2S<1/2>,3d10 1S<0>,2827.8,1.4,,,,,,,,,,,
78,Pt LI,Pt,LI,50,Platinum,Ni,[Ar].3d10,3d10,1S0,3d9 2D<5/2>,4715,4,,,,,,,,,,,
78,Pt LII,Pt,LII,51,Platinum,Co,[Ar].3d9,3d9,2D<5/2>,3d8 3F<4>,4839,4,,,,,,,,,,,
78,Pt LIII,Pt,LIII,52,Platinum,Fe,[Ar].3d8,3d8,3F<4>,3d7 4F<9/2>,4980,4,,,,,,,,,,,
78,Pt LIV,Pt,LIV,53,Platinum,Mn,[Ar].3d7,3d7,4F<9/2>,"3d-4.3d+2 (0,4)<4>",5128,5,,,,,,,,,,,
78,Pt LV,Pt,LV,54,Platinum,Cr,[Ar].3d6,3d-4.3d+2,"(0,4)<4>","3d-4.3d+ (0,5/2)<5/2>",5270,5,,,,,,,,,,,
78,Pt LVI,Pt,LVI,55,Platinum,V,[Ar].3d5,3d-4.3d+,"(0,5/2)<5/2>",3d4 5D<0>,5410,5,,,,,,,,,,,
78,Pt LVII,Pt,LVII,56,Platinum,Ti,[Ar].3d4,3d4,5D0,3d3 4F<3/2>,5654,5,,,,,,,,,,,
78,Pt LVIII,Pt,LVIII,57,Platinum,Sc,[Ar].3d3,3d3,4F<3/2>,3d2 3F<2>,5800,6,,,,,,,,,,,
78,Pt LIX,Pt,LIX,58,Platinum,Ca,[Ar].3d2,3d2,3F<2>,3d 2D<3/2>,5959,6,,,,,,,,,,,
78,Pt LX,Pt,LX,59,Platinum,K,[Ar].3d,3d,2D<3/2>,3p6 1S<0>,6106,7,,,,,,,,,,,
78,Pt LXI,Pt,LXI,60,Platinum,Ar,[Ne].3s2.3p6,3p6,1S0,3p5 2P*<3/2>,6517,10,,,,,,,,,,,
78,Pt LXII,Pt,LXII,61,Platinum,Cl,[Ne].3s2.3p5,3p5,2P*<3/2>,3p4 3P<2>,6646,12,,,,,,,,,,,
78,Pt LXIII,Pt,LXIII,62,Platinum,S,[Ne].3s2.3p4,3p4,3P<2>,3p3 2P*<3/2>,6787,15,,,,,,,,,,,
78,Pt LXIV,Pt,LXIV,63,Platinum,P,[Ne].3s2.3p3,3p3,2P*<3/2>,3p2 3P<0>,6918,19,,,,,,,,,,,
78,Pt LXV,Pt,LXV,64,Platinum,Si,[Ne].3s2.3p2,3p2,3P0,3p 2P*<1/2>,7512,24,,,,,,,,,,,
78,Pt LXVI,Pt,LXVI,65,Platinum,Al,[Ne].3s2.3p,3p,2P*<1/2>,3s2 1S<0>,7660,30,,,,,,,,,,,
78,Pt LXVII,Pt,LXVII,66,Platinum,Mg,[Ne].3s2,3s2,1S0,3s 2S<1/2>,7960,40,,,,,,,,,,,
78,Pt LXVIII,Pt,LXVIII,67,Platinum,Na,[Ne].3s,3s,2S<1/2>,2p6 1S<0>,8100,40,,,,,,,,,,,
78,Pt LXIX,Pt,LXIX,68,Platinum,Ne,1s2.2s2.2p6,2p6,1S0,2p5 2P*<3/2>,17540,50,,,,,,,,,,,
78,Pt LXX,Pt,LXX,69,Platinum,F,1s2.2s2.2p5,2p5,2P*<3/2>,2p4 3P<2>,17890,50,,,,,,,,,,,
78,Pt LXXI,Pt,LXXI,70,Platinum,O,1s2.2s2.2p4,2p4,3P<2>,"2p2<1/2>.2p<3/2> (0,3/2)*<3/2>",18280,60,,,,,,,,,,,
78,Pt LXXII,Pt,LXXII,71,Platinum,N,1s2.2s2.2p3,2p2<1/2>.2p<3/2>,"(0,3/2)*<3/2>",2p2 3P<0>,18630,60,,,,,,,,,,,
78,Pt LXXIII,Pt,LXXIII,72,Platinum,C,1s2.2s2.2p2,2p2,3P0,2p 2P*<1/2>,20840,70,,,,,,,,,,,
78,Pt LXXIV,Pt,LXXIV,73,Platinum,B,1s2.2s2.2p,2p,2P*<1/2>,2s2 1S<0>,21280,90,,,,,,,,,,,
78,Pt LXXV,Pt,LXXV,74,Platinum,Be,1s2.2s2,2s2,1S0,2s 2S<1/2>,21840,90,,,,,,,,,,,
78,Pt LXXVI,Pt,LXXVI,75,Platinum,Li,1s2.2s,1s2.2s,2S<1/2>,1s2 1S<0>,22205.7,0.3,,,,,,,,,,,
78,Pt LXXVII,Pt,LXXVII,76,Platinum,He,1s2,1s2,1S0,1s 2S<1/2>,88955.1,0.3,,,,,,,,,,,
78,Pt LXXVIII,Pt,LXXVIII,77,Platinum,H,1s,1s,2S<1/2>,,90659.84,0.17,,,,,,,,,,,
79,Au I,Au,I,0,Gold,Au,[Xe].4f14.5d10.6s,5d10.6s,2S<1/2>,5d10 1S<0>,9.225554,0.000004,,,,,,,,,,,
79,Au II,Au,II,1,Gold,Pt,[Xe].4f14.5d10,5d10,1S0,5d9 2D<5/2>,20.203,0.025,,,,,,,,,,,
79,Au III,Au,III,2,Gold,Ir,[Xe].4f14.5d9,5d9,2D<5/2>,5d8 3F<4>,30,1.6,,,,,,,,,,,
79,Au IV,Au,IV,3,Gold,Os,[Xe].4f14.5d8,5d8,3F<4>,5d7 4F<9/2>,45,1.7,,,,,,,,,,,
79,Au V,Au,V,4,Gold,Re,[Xe].4f14.5d7,5d7,4F<9/2>,5d6 5D<4>,60,1.9,,,,,,,,,,,
79,Au VI,Au,VI,5,Gold,W,[Xe].4f14.5d6,5d6,5D<4>,5d5 6S<5/2>,74,2,,,,,,,,,,,
79,Au VII,Au,VII,6,Gold,Ta,[Xe].4f14.5d5,5d5,6S<5/2>,5d4 5D<0>,94,2,,,,,,,,,,,
79,Au VIII,Au,VIII,7,Gold,Hf,[Xe].4f14.5d4,5d4,5D0,5d3 4F<3/2>,112,2.1,,,,,,,,,,,
79,Au IX,Au,IX,8,Gold,Lu,[Xe].4f14.5d3,5d3,4F<3/2>,5d2 3F<2>,130.1,2.2,,,,,,,,,,,
79,Au X,Au,X,9,Gold,Yb,[Xe].4f14.5d2,5d2,3F<2>,5d 2D<3/2>,149,2.2,,,,,,,,,,,
79,Au XI,Au,XI,10,Gold,Tm,[Xe].4f14.5d,5d,2D<3/2>,4f14 1S<0>,168.2,1.4,,,,,,,,,,,
79,Au XII,Au,XII,11,Gold,Er,[Xe].4f14,4f14,1S0,4f14.5p5 2P*<3/2>,248,1,,,,,,,,,,,
79,Au XIII,Au,XIII,12,Gold,Ho,[Cd].4f14.5p5,4f14.5p5,2P*<3/2>,4f14.5p4 3P<2>,275,14,,,,,,,,,,,
79,Au XIV,Au,XIV,13,Gold,Dy,[Cd].4f14.5p4,4f14.5p4,3P<2>,4f14.5p3 2P*<3/2>,299,15,,,,,,,,,,,
79,Au XV,Au,XV,14,Gold,Tb,[Cd].4f14.5p3,4f14.5p3,2P*<3/2>,4f14.5p2 3P<0>,324,16,,,,,,,,,,,
79,Au XVI,Au,XVI,15,Gold,Gd,[Cd].4f14.5p2,4f14.5p2,3P0,4f14.5p 2P*<1/2>,365,19,,,,,,,,,,,
79,Au XVII,Au,XVII,16,Gold,Eu,[Cd].4f14.5p,4f14.5p,2P*<1/2>,4f14 1S<0>,392,20,,,,,,,,,,,
79,Au XVIII,Au,XVIII,17,Gold,Sm,[Cd].4f14,4f14,1S0,4f13.5s2 2F*<7/2>,433,21,,,,,,,,,,,
79,Au XIX,Au,XIX,18,Gold,Pm,[Cd].4f13,4f13.5s2,2F*<7/2>,4f12.5s2 3H<6>,487,25,,,,,,,,,,,
79,Au XX,Au,XX,19,Gold,Nd,[Cd].4f12,4f12.5s2,3H<6>,4f12.5s,520,30,,,,,,,,,,,
79,Au XXI,Au,XXI,20,Gold,Pr,[Kr].4d10.4f12.5s,4f12.5s,,4f12,550,30,,,,,,,,,,,
79,Au XXII,Au,XXII,21,Gold,Ce,[Kr].4d10.4f12,4f12,,4f11 4I*<15/2>,600,30,,,,,,,,,,,
79,Au XXIII,Au,XXIII,22,Gold,La,[Kr].4d10.4f11,4f11,4I*<15/2>,4f10 5I<8>,650,40,,,,,,,,,,,
79,Au XXIV,Au,XXIV,23,Gold,Ba,[Kr].4d10.4f10,4f10,5I<8>,4f9 6H*<15/2>,710,40,,,,,,,,,,,
79,Au XXV,Au,XXV,24,Gold,Cs,[Kr].4d10.4f9,4f9,6H*<15/2>,4f8 7F<6>,760,40,,,,,,,,,,,
79,Au XXVI,Au,XXVI,25,Gold,Xe,[Kr].4d10.4f8,4f8,7F<6>,4f7 8S*<7/2>,820,40,,,,,,,,,,,
79,Au XXVII,Au,XXVII,26,Gold,I,[Kr].4d10.4f7,4f7,8S*<7/2>,4f6 7F<0>,870,40,,,,,,,,,,,
79,Au XXVIII,Au,XXVIII,27,Gold,Te,[Kr].4d10.4f6,4f6,7F0,4f5 6H*<5/2>,930,50,,,,,,,,,,,
79,Au XXIX,Au,XXIX,28,Gold,Sb,[Kr].4d10.4f5,4f5,6H*<5/2>,4f4 5I<4>,990,50,,,,,,,,,,,
79,Au XXX,Au,XXX,29,Gold,Sn,[Kr].4d10.4f4,4f4,5I<4>,4f3 4I*<9/2>,1040,50,,,,,,,,,,,
79,Au XXXI,Au,XXXI,30,Gold,In,[Kr].4d10.4f3,4f3,4I*<9/2>,4f2 3H<4>,1100,50,,,,,,,,,,,
79,Au XXXII,Au,XXXII,31,Gold,Cd,[Kr].4d10.4f2,4f2,3H<4>,4f 2F*<5/2>,1150,60,,,,,,,,,,,
79,Au XXXIII,Au,XXXIII,32,Gold,Ag,[Kr].4d10.4f,4f,2F*<5/2>,4d10 1S<0>,1210,60,,,,,,,,,,,
79,Au XXXIV,Au,XXXIV,33,Gold,Pd,[Kr].4d10,4d10,1S0,4d9 2D<5/2>,1475,5,,,,,,,,,,,
79,Au XXXV,Au,XXXV,34,Gold,Rh,[Kr].4d9,4d9,2D<5/2>,4d8 3F<4>,1527,5,,,,,,,,,,,
79,Au XXXVI,Au,XXXVI,35,Gold,Ru,[Kr].4d8,4d8,3F<4>,4d7 4F<9/2>,1584,5,,,,,,,,,,,
79,Au XXXVII,Au,XXXVII,36,Gold,Tc,[Kr].4d7,4d7,4F<9/2>,4d6 5D<4>,1644,5,,,,,,,,,,,
79,Au XXXVIII,Au,XXXVIII,37,Gold,Mo,[Kr].4d6,4d6,5D<4>,"4d-4.4d+ (0,5/2)<5/2>",1702,4,,,,,,,,,,,
79,Au XXXIX,Au,XXXIX,38,Gold,Nb,[Kr].4d5,4d-4.4d+,"(0,5/2)<5/2>",4d4 5D<0>,1758,4,,,,,,,,,,,
79,Au XL,Au,XL,39,Gold,Zr,[Kr].4d4,4d4,5D0,4d3 4F<3/2>,1845,4,,,,,,,,,,,
79,Au XLI,Au,XLI,40,Gold,Y,[Kr].4d3,4d3,4F<3/2>,4d2 3F<2>,1904,4,,,,,,,,,,,
79,Au XLII,Au,XLII,41,Gold,Sr,[Kr].4d2,4d2,3F<2>,4d 2D<3/2>,1967,4,,,,,,,,,,,
79,Au XLIII,Au,XLIII,42,Gold,Rb,[Kr].4d,4d,2D<3/2>,4p6 1S<0>,2026,4,,,,,,,,,,,
79,Au XLIV,Au,XLIV,43,Gold,Kr,[Ar].3d10.4s2.4p6,4p6,1S0,4p5 2P*<3/2>,2261,4,,,,,,,,,,,
79,Au XLV,Au,XLV,44,Gold,Br,[Ar].3d10.4s2.4p5,4p5,2P*<3/2>,4p4 3P<2>,2320,4,,,,,,,,,,,
79,Au XLVI,Au,XLVI,45,Gold,Se,[Ar].3d10.4s2.4p4,4p4,3P<2>,"4p-2.4p+ (0,3/2)*<3/2>",2383,4,,,,,,,,,,,
79,Au XLVII,Au,XLVII,46,Gold,As,[Ar].3d10.4s2.4p3,4p-2.4p+,"(0,3/2)*<3/2>",4p2 3P<0>,2443,4,,,,,,,,,,,
79,Au XLVIII,Au,XLVIII,47,Gold,Ge,[Ar].3d10.4s2.4p2,4p2,3P0,4p 2P*<1/2>,2640,4,,,,,,,,,,,
79,Au XLIX,Au,XLIX,48,Gold,Ga,[Ar].3d10.4s2.4p,4p,2P*<1/2>,4s2 1S<0>,2708,4,,,,,,,,,,,
79,Au L,Au,L,49,Gold,Zn,[Ar].3d10.4s2,4s2,1S0,4s 2S<1/2>,2870,4,,,,,,,,,,,
79,Au LI,Au,LI,50,Gold,Cu,[Ar].3d10.4s,4s,2S<1/2>,3d10 1S<0>,2941,1,,,,,,,,,,,
79,Au LII,Au,LII,51,Gold,Ni,[Ar].3d10,3d10,1S0,3d9 2D<5/2>,4888,4,,,,,,,,,,,
79,Au LIII,Au,LIII,52,Gold,Co,[Ar].3d9,3d9,2D<5/2>,3d8 3F<4>,5013,4,,,,,,,,,,,
79,Au LIV,Au,LIV,53,Gold,Fe,[Ar].3d8,3d8,3F<4>,3d7 4F<9/2>,5156,5,,,,,,,,,,,
79,Au LV,Au,LV,54,Gold,Mn,[Ar].3d7,3d7,4F<9/2>,"3d-4.3d+2 (0,4)<4>",5307,5,,,,,,,,,,,
79,Au LVI,Au,LVI,55,Gold,Cr,[Ar].3d6,3d-4.3d+2,"(0,4)<4>","3d-4.3d+ (0,5/2)<5/2>",5452,5,,,,,,,,,,,
79,Au LVII,Au,LVII,56,Gold,V,[Ar].3d5,3d-4.3d+,"(0,5/2)<5/2>",3d4 5D<0>,5594,5,,,,,,,,,,,
79,Au LVIII,Au,LVIII,57,Gold,Ti,[Ar].3d4,3d4,5D0,3d3 4F<3/2>,5846,6,,,,,,,,,,,
79,Au LIX,Au,LIX,58,Gold,Sc,[Ar].3d3,3d3,4F<3/2>,3d2 3F<2>,5994,6,,,,,,,,,,,
79,Au LX,Au,LX,59,Gold,Ca,[Ar].3d2,3d2,3F<2>,3d 2D<3/2>,6156,7,,,,,,,,,,,
79,Au LXI,Au,LXI,60,Gold,K,[Ar].3d,3d,2D<3/2>,3p6 1S<0>,6305,10,,,,,,,,,,,
79,Au LXII,Au,LXII,61,Gold,Ar,[Ne].3s2.3p6,3p6,1S0,3p5 2P*<3/2>,6724,12,,,,,,,,,,,
79,Au LXIII,Au,LXIII,62,Gold,Cl,[Ne].3s2.3p5,3p5,2P*<3/2>,3p4 3P<2>,6854,15,,,,,,,,,,,
79,Au LXIV,Au,LXIV,63,Gold,S,[Ne].3s2.3p4,3p4,3P<2>,3p3 2P*<3/2>,6997,19,,,,,,,,,,,
79,Au LXV,Au,LXV,64,Gold,P,[Ne].3s2.3p3,3p3,2P*<3/2>,3p2 3P<0>,7130,24,,,,,,,,,,,
79,Au LXVI,Au,LXVI,65,Gold,Si,[Ne].3s2.3p2,3p2,3P0,3p 2P*<1/2>,7760,30,,,,,,,,,,,
79,Au LXVII,Au,LXVII,66,Gold,Al,[Ne].3s2.3p,3p,2P*<1/2>,3s2 1S<0>,7910,40,,,,,,,,,,,
79,Au LXVIII,Au,LXVIII,67,Gold,Mg,[Ne].3s2,3s2,1S0,3s 2S<1/2>,8210,40,,,,,,,,,,,
79,Au LXIX,Au,LXIX,68,Gold,Na,[Ne].3s,3s,2S<1/2>,2p6 1S<0>,8360,50,,,,,,,,,,,
79,Au LXX,Au,LXX,69,Gold,Ne,1s2.2s2.2p6,2p6,1S0,2p5 2P*<3/2>,18040,50,,,,,,,,,,,
79,Au LXXI,Au,LXXI,70,Gold,F,1s2.2s2.2p5,2p5,2P*<3/2>,2p4 3P<2>,18400,60,,,,,,,,,,,
79,Au LXXII,Au,LXXII,71,Gold,O,1s2.2s2.2p4,2p4,3P<2>,"2p2<1/2>.2p<3/2> (0,3/2)*<3/2>",18790,60,,,,,,,,,,,
79,Au LXXIII,Au,LXXIII,72,Gold,N,1s2.2s2.2p3,2p2<1/2>.2p<3/2>,"(0,3/2)*<3/2>",2p2 3P<0>,19150,70,,,,,,,,,,,
79,Au LXXIV,Au,LXXIV,73,Gold,C,1s2.2s2.2p2,2p2,3P0,2p 2P*<1/2>,21470,90,,,,,,,,,,,
79,Au LXXV,Au,LXXV,74,Gold,B,1s2.2s2.2p,2p,2P*<1/2>,2s2 1S<0>,21920,90,,,,,,,,,,,
79,Au LXXVI,Au,LXXVI,75,Gold,Be,1s2.2s2,2s2,1S0,2s 2S<1/2>,22500,100,,,,,,,,,,,
79,Au LXXVII,Au,LXXVII,76,Gold,Li,1s2.2s,1s2.2s,2S<1/2>,1s2 1S<0>,22868.1,0.3,,,,,,,,,,,
79,Au LXXVIII,Au,LXXVIII,77,Gold,He,1s2,1s2,1S0,1s 2S<1/2>,91515.8,0.3,,,,,,,,,,,
79,Au LXXIX,Au,LXXIX,78,Gold,H,1s,1s,2S<1/2>,,93254.62,0.2,,,,,,,,,,,
80,Hg I,Hg,I,0,Mercury,Hg,[Xe].4f14.5d10.6s2,5d10.6s2,1S0,6s 2S<1/2>,10.437504,0.000006,,,,,,,,,,,
80,Hg II,Hg,II,1,Mercury,Au,[Xe].4f14.5d10.6s,5d10.6s,2S<1/2>,5d10 1S<0>,18.75688,0.00004,,,,,,,,,,,
80,Hg III,Hg,III,2,Mercury,Pt,[Xe].4f14.5d10,5d10,1S0,5d9 2D<5/2>,34.49,0.05,,,,,,,,,,,
80,Hg IV,Hg,IV,3,Mercury,Ir,[Xe].4f14.5d9,5d9,2D<5/2>,5d8 3F<4>,48.55,0.15,,,,,,,,,,,
80,Hg V,Hg,V,4,Mercury,Os,[Xe].4f14.5d8,5d8,3F<4>,5d7 4F<9/2>,61.2,0.2,,,,,,,,,,,
80,Hg VI,Hg,VI,5,Mercury,Re,[Xe].4f14.5d7,5d7,4F<9/2>,5d6 5D<4>,76.6,0.5,,,,,,,,,,,
80,Hg VII,Hg,VII,6,Mercury,W,[Xe].4f14.5d6,5d6,5D<4>,5d5 6S<5/2>,93,2,,,,,,,,,,,
80,Hg VIII,Hg,VIII,7,Mercury,Ta,[Xe].4f14.5d5,5d5,6S<5/2>,5d4 5D<0>,113.9,2.1,,,,,,,,,,,
80,Hg IX,Hg,IX,8,Mercury,Hf,[Xe].4f14.5d4,5d4,5D0,5d3 4F<3/2>,134,2.2,,,,,,,,,,,
80,Hg X,Hg,X,9,Mercury,Lu,[Xe].4f14.5d3,5d3,4F<3/2>,5d2 3F<2>,153,2.2,,,,,,,,,,,
80,Hg XI,Hg,XI,10,Mercury,Yb,[Xe].4f14.5d2,5d2,3F<2>,5d 2D<3/2>,173,2.4,,,,,,,,,,,
80,Hg XII,Hg,XII,11,Mercury,Tm,[Xe].4f14.5d,5d,2D<3/2>,4f14 1S<0>,192.7,1.7,,,,,,,,,,,
80,Hg XIII,Hg,XIII,12,Mercury,Er,[Xe].4f14,4f14,1S0,4f14.5p5 2P*<3/2>,276.9,1.1,,,,,,,,,,,
80,Hg XIV,Hg,XIV,13,Mercury,Ho,[Cd].4f14.5p5,4f14.5p5,2P*<3/2>,4f14.5p4 3P<2>,307,15,,,,,,,,,,,
80,Hg XV,Hg,XV,14,Mercury,Dy,[Cd].4f14.5p4,4f14.5p4,3P<2>,4f14.5p3 2P*<3/2>,332,16,,,,,,,,,,,
80,Hg XVI,Hg,XVI,15,Mercury,Tb,[Cd].4f14.5p3,4f14.5p3,2P*<3/2>,4f14.5p2 3P<0>,357,17,,,,,,,,,,,
80,Hg XVII,Hg,XVII,16,Mercury,Gd,[Cd].4f14.5p2,4f14.5p2,3P0,4f14.5p 2P*<1/2>,402,20,,,,,,,,,,,
80,Hg XVIII,Hg,XVIII,17,Mercury,Eu,[Cd].4f14.5p,4f14.5p,2P*<1/2>,4f14 1S<0>,429,21,,,,,,,,,,,
80,Hg XIX,Hg,XIX,18,Mercury,Sm,[Cd].4f14,4f14,1S0,4f13.5s2 2F*<7/2>,477,24,,,,,,,,,,,
80,Hg XX,Hg,XX,19,Mercury,Pm,[Cd].4f13,4f13.5s2,2F*<7/2>,4f13.5s*,530,30,,,,,,,,,,,
80,Hg XXI,Hg,XXI,20,Mercury,Nd,[Kr].4d10.4f13.5s,4f13.5s,*,4f13 2F*<7/2>,560,30,,,,,,,,,,,
80,Hg XXII,Hg,XXII,21,Mercury,Pr,[Kr].4d10.4f13,4f13,2F*<7/2>,4f12,590,30,,,,,,,,,,,
80,Hg XXIII,Hg,XXIII,22,Mercury,Ce,[Kr].4d10.4f12,4f12,,4f11 4I*<15/2>,650,30,,,,,,,,,,,
80,Hg XXIV,Hg,XXIV,23,Mercury,La,[Kr].4d10.4f11,4f11,4I*<15/2>,4f10 5I<8>,710,40,,,,,,,,,,,
80,Hg XXV,Hg,XXV,24,Mercury,Ba,[Kr].4d10.4f10,4f10,5I<8>,4f9 6H*<15/2>,760,40,,,,,,,,,,,
80,Hg XXVI,Hg,XXVI,25,Mercury,Cs,[Kr].4d10.4f9,4f9,6H*<15/2>,4f8 7F<6>,820,40,,,,,,,,,,,
80,Hg XXVII,Hg,XXVII,26,Mercury,Xe,[Kr].4d10.4f8,4f8,7F<6>,4f7 8S*<7/2>,880,40,,,,,,,,,,,
80,Hg XXVIII,Hg,XXVIII,27,Mercury,I,[Kr].4d10.4f7,4f7,8S*<7/2>,4f6 7F<0>,930,50,,,,,,,,,,,
80,Hg XXIX,Hg,XXIX,28,Mercury,Te,[Kr].4d10.4f6,4f6,7F0,4f5 6H*<5/2>,990,50,,,,,,,,,,,
80,Hg XXX,Hg,XXX,29,Mercury,Sb,[Kr].4d10.4f5,4f5,6H*<5/2>,4f4 5I<4>,1050,50,,,,,,,,,,,
80,Hg XXXI,Hg,XXXI,30,Mercury,Sn,[Kr].4d10.4f4,4f4,5I<4>,4f3 4I*<9/2>,1110,60,,,,,,,,,,,
80,Hg XXXII,Hg,XXXII,31,Mercury,In,[Kr].4d10.4f3,4f3,4I*<9/2>,4f2 3H<4>,1160,60,,,,,,,,,,,