At. num,Sp. Name,Element,Valence,Ion Charge,El. Name,Isoel. Seq.,Ground Shells (a),Ground Config.,Ground Level,Ionized Level,Ionization Energy (b) (eV),Uncertainty (c) (eV),,,,,,,,,,,
106,Sg C,Sg,C,99,Seaborgium,N,1s2.2s2.2p3,2p2<1/2>.2p<3/2>,"(0,3/2)*<3/2>",2p2 3P<0>,36100,500,,,,,,,,,,,
106,Sg CI,Sg,CI,100,Seaborgium,C,1s2.2s2.2p2,2p2,3P0,2p 2P*<1/2>,44900,500,,,,,,,,,,,
106,Sg CII,Sg,CII,101,Seaborgium,B,1s2.2s2.2p,2p,2P*<1/2>,2s2 1S<0>,45700,500,,,,,,,,,,,
106,Sg CIII,Sg,CIII,102,Seaborgium,Be,1s2.2s2,2s2,1S0,2s 2S<1/2>,46600,500,,,,,,,,,,,
106,Sg CIV,Sg,CIV,103,Seaborgium,Li,1s2.2s,1s2.2s,2S<1/2>,1s2 1S<0>,,,,,,,,,,,,,
106,Sg CV,Sg,CV,104,Seaborgium,He,1s2,1s2,1S0,1s 2S<1/2>,182833,11,,,,,,,,,,,
106,Sg CVI,Sg,CVI,105,Seaborgium,H,1s,1s,2S<1/2>,,185835,11,,,,,,,,,,,
107,Bh I,Bh,I,0,Bohrium,Bh,[Rn].5f14.6d5.7s2,6d5.7s2,<5/2>,6d4.7s2 <0>,7.7,0.5,,,,,,,,,,,
107,Bh II,Bh,II,1,Bohrium,Sg,[Rn].5f14.6d4.7s2,6d4.7s2,0,6d4.7s <1/2>,17.5,0.5,,,,,,,,,,,
107,Bh III,Bh,III,2,Bohrium,Db,[Rn].5f14.6d4.7s,6d4.7s,<1/2>,6d4 <0>,26.7,0.5,,,,,,,,,,,
107,Bh IV,Bh,IV,3,Bohrium,Rf,[Rn].5f14.6d4,6d4,0,6d3 <3/2>,37.3,0.5,,,,,,,,,,,
107,Bh V,Bh,V,4,Bohrium,Lr,[Rn].5f14.6d3,6d3,<3/2>,6d2 <2>,49,0.5,,,,,,,,,,,
107,Bh VI,Bh,VI,5,Bohrium,No,[Rn].5f14.6d2,6d2,<2>,5f14.6d 2D<3/2>,62.1,0.5,,,,,,,,,,,
107,Bh VII,Bh,VII,6,Bohrium,Md,[Rn].5f14.6d,5f14.6d,2D<3/2>,5f14 1S<0>,74.9,0.5,,,,,,,,,,,
107,Bh VIII,Bh,VIII,7,Bohrium,Fm,[Rn].5f14,5f14,1S0,5f13 2F*<7/2>,134,2.1,,,,,,,,,,,
107,Bh IX,Bh,IX,8,Bohrium,Es,[Rn].5f13,5f13,2F*<7/2>,5f12 3H<6>,148,2.2,,,,,,,,,,,
107,Bh X,Bh,X,9,Bohrium,Cf,[Rn].5f12,5f12,3H<6>,5f11 4I*<15/2>,178,2.2,,,,,,,,,,,
107,Bh XI,Bh,XI,10,Bohrium,Bk,[Rn].5f11,5f11,4I*<15/2>,5f10 5I<8>,198,2.4,,,,,,,,,,,
107,Bh XII,Bh,XII,11,Bohrium,Cm,[Rn].5f10,5f10,5I<8>,5f9 6H*<15/2>,228,2.5,,,,,,,,,,,
107,Bh XIII,Bh,XIII,12,Bohrium,Am,[Rn].5f9,5f9,6H*<15/2>,5f8 7F<6>,255,3,,,,,,,,,,,
107,Bh XIV,Bh,XIV,13,Bohrium,Pu,[Rn].5f8,5f8,7F<6>,5f7 8S*<7/2>,281,3,,,,,,,,,,,
107,Bh XV,Bh,XV,14,Bohrium,Np,[Rn].5f7,5f7,8S*<7/2>,5f6 7F<0>,318,3,,,,,,,,,,,
107,Bh XVI,Bh,XVI,15,Bohrium,U,[Rn].5f6,5f6,7F0,5f5 6H*<5/2>,337,3,,,,,,,,,,,
107,Bh XVII,Bh,XVII,16,Bohrium,Pa,[Rn].5f5,5f5,6H*<5/2>,5f4 5I<4>,374,3,,,,,,,,,,,
107,Bh XVIII,Bh,XVIII,17,Bohrium,Th,[Rn].5f4,5f4,5I<4>,,,,,,,,,,,,,,
107,Bh XXX,Bh,XXX,29,Bohrium,Pt,[Xe].4f14.5d10,5d10,1S0,5d9 2D<5/2>,934,4,,,,,,,,,,,
107,Bh XXXI,Bh,XXXI,30,Bohrium,Ir,[Xe].4f14.5d9,5d9,2D<5/2>,5d8 3F<4>,969,4,,,,,,,,,,,
107,Bh XXXII,Bh,XXXII,31,Bohrium,Os,[Xe].4f14.5d8,5d8,3F<4>,5d7 4F<9/2>,1008,4,,,,,,,,,,,
107,Bh XXXIII,Bh,XXXIII,32,Bohrium,Re,[Xe].4f14.5d7,5d7,4F<9/2>,5d6 5D<4>,1049,4,,,,,,,,,,,
107,Bh XXXIV,Bh,XXXIV,33,Bohrium,W,[Xe].4f14.5d6,5d6,5D<4>,5d5 6S<5/2>,1088,5,,,,,,,,,,,
107,Bh XXXV,Bh,XXXV,34,Bohrium,Ta,[Xe].4f14.5d5,5d5,6S<5/2>,5d4 5D<0>,1126,5,,,,,,,,,,,
107,Bh XXXVI,Bh,XXXVI,35,Bohrium,Hf,[Xe].4f14.5d4,5d4,5D0,5d3 4F<3/2>,1197,5,,,,,,,,,,,
107,Bh XXXVII,Bh,XXXVII,36,Bohrium,Lu,[Xe].4f14.5d3,5d3,4F<3/2>,5d2 3F<2>,1237,5,,,,,,,,,,,
107,Bh XXXVIII,Bh,XXXVIII,37,Bohrium,Yb,[Xe].4f14.5d2,5d2,3F<2>,5d 2D<3/2>,1280,4,,,,,,,,,,,
107,Bh XXXIX,Bh,XXXIX,38,Bohrium,Tm,[Xe].4f14.5d,5d,2D<3/2>,4f14 1S<0>,1320,4,,,,,,,,,,,
107,Bh XL,Bh,XL,39,Bohrium,Er,[Xe].4f14,4f14,1S0,4f14.5p5 2P*<3/2>,,,,,,,,,,,,,
107,Bh XLI,Bh,XLI,40,Bohrium,Ho,[Cd].4f14.5p5,4f14.5p5,2P*<3/2>,4f14.5p4 3P<2>,,,,,,,,,,,,,
107,Bh XLII,Bh,XLII,41,Bohrium,Dy,[Cd].4f14.5p4,4f14.5p4,3P<2>,4f14.5p3 2P*<3/2>,,,,,,,,,,,,,
107,Bh XLIII,Bh,XLIII,42,Bohrium,Tb,[Cd].4f14.5p3,4f14.5p3,2P*<3/2>,4f14.5p2 3P<0>,,,,,,,,,,,,,
107,Bh XLIV,Bh,XLIV,43,Bohrium,Gd,[Cd].4f14.5p2,4f14.5p2,3P0,4f14.5p 2P*<1/2>,,,,,,,,,,,,,
107,Bh XLV,Bh,XLV,44,Bohrium,Eu,[Cd].4f14.5p,4f14.5p,2P*<1/2>,4f14 1S<0>,,,,,,,,,,,,,
107,Bh XLVI,Bh,XLVI,45,Bohrium,Sm,[Cd].4f14,4f14,1S0,4f14.5s 2S<1/2>,,,,,,,,,,,,,
107,Bh XLVII,Bh,XLVII,46,Bohrium,Pm,[Kr].4d10.4f14.5s,4f14.5s,2S<1/2>,4f14 1S<0>,,,,,,,,,,,,,
107,Bh XLVIII,Bh,XLVIII,47,Bohrium,Nd,[Kr].4d10.4f14,4f14,1S0,4f13 2F*<7/2>,,,,,,,,,,,,,
107,Bh XLIX,Bh,XLIX,48,Bohrium,Pr,[Kr].4d10.4f13,4f13,2F*<7/2>,4f12,,,,,,,,,,,,,
107,Bh L,Bh,L,49,Bohrium,Ce,[Kr].4d10.4f12,4f12,,4f11 4I*<15/2>,,,,,,,,,,,,,
107,Bh LI,Bh,LI,50,Bohrium,La,[Kr].4d10.4f11,4f11,4I*<15/2>,4f10 5I<8>,,,,,,,,,,,,,
107,Bh LII,Bh,LII,51,Bohrium,Ba,[Kr].4d10.4f10,4f10,5I<8>,4f9 6H*<15/2>,,,,,,,,,,,,,
107,Bh LIII,Bh,LIII,52,Bohrium,Cs,[Kr].4d10.4f9,4f9,6H*<15/2>,4f8 7F<6>,,,,,,,,,,,,,
107,Bh LIV,Bh,LIV,53,Bohrium,Xe,[Kr].4d10.4f8,4f8,7F<6>,4f7 8S*<7/2>,,,,,,,,,,,,,
107,Bh LV,Bh,LV,54,Bohrium,I,[Kr].4d10.4f7,4f7,8S*<7/2>,4f6 7F<0>,,,,,,,,,,,,,
107,Bh LVI,Bh,LVI,55,Bohrium,Te,[Kr].4d10.4f6,4f6,7F0,4f5 6H*<5/2>,,,,,,,,,,,,,
107,Bh LVII,Bh,LVII,56,Bohrium,Sb,[Kr].4d10.4f5,4f5,6H*<5/2>,4f4 5I<4>,,,,,,,,,,,,,
107,Bh LVIII,Bh,LVIII,57,Bohrium,Sn,[Kr].4d10.4f4,4f4,5I<4>,4f3 4I*<9/2>,,,,,,,,,,,,,
107,Bh LIX,Bh,LIX,58,Bohrium,In,[Kr].4d10.4f3,4f3,4I*<9/2>,4f2 3H<4>,,,,,,,,,,,,,
107,Bh LX,Bh,LX,59,Bohrium,Cd,[Kr].4d10.4f2,4f2,3H<4>,4f 2F*<5/2>,,,,,,,,,,,,,
107,Bh LXI,Bh,LXI,60,Bohrium,Ag,[Kr].4d10.4f,4f,2F*<5/2>,4d10 1S<0>,,,,,,,,,,,,,
107,Bh LXII,Bh,LXII,61,Bohrium,Pd,[Kr].4d10,4d10,1S0,4d9 2D<5/2>,4216,12,,,,,,,,,,,
107,Bh LXIII,Bh,LXIII,62,Bohrium,Rh,[Kr].4d9,4d9,2D<5/2>,4d8 3F<4>,4301,15,,,,,,,,,,,
107,Bh LXIV,Bh,LXIV,63,Bohrium,Ru,[Kr].4d8,4d8,3F<4>,4d7 4F<9/2>,4390,19,,,,,,,,,,,
107,Bh LXV,Bh,LXV,64,Bohrium,Tc,[Kr].4d7,4d7,4F<9/2>,4d6 5D<4>,4486,24,,,,,,,,,,,
107,Bh LXVI,Bh,LXVI,65,Bohrium,Mo,[Kr].4d6,4d6,5D<4>,"4d-4.4d+ (0,5/2)<5/2>",4580,30,,,,,,,,,,,
107,Bh LXVII,Bh,LXVII,66,Bohrium,Nb,[Kr].4d5,4d-4.4d+,"(0,5/2)<5/2>",4d4 5D<0>,4660,40,,,,,,,,,,,
107,Bh LXVIII,Bh,LXVIII,67,Bohrium,Zr,[Kr].4d4,4d4,5D0,4d3 4F<3/2>,4890,40,,,,,,,,,,,
107,Bh LXIX,Bh,LXIX,68,Bohrium,Y,[Kr].4d3,4d3,4F<3/2>,4d2 3F<2>,4980,50,,,,,,,,,,,
107,Bh LXX,Bh,LXX,69,Bohrium,Sr,[Kr].4d2,4d2,3F<2>,4d 2D<3/2>,5080,50,,,,,,,,,,,
107,Bh LXXI,Bh,LXXI,70,Bohrium,Rb,[Kr].4d,4d,2D<3/2>,4p6 1S<0>,5170,60,,,,,,,,,,,
107,Bh LXXII,Bh,LXXII,71,Bohrium,Kr,[Ar].3d10.4s2.4p6,4p6,1S0,4p5 2P*<3/2>,5550,60,,,,,,,,,,,
107,Bh LXXIII,Bh,LXXIII,72,Bohrium,Br,[Ar].3d10.4s2.4p5,4p5,2P*<3/2>,4p4 3P<2>,5640,70,,,,,,,,,,,
107,Bh LXXIV,Bh,LXXIV,73,Bohrium,Se,[Ar].3d10.4s2.4p4,4p4,3P<2>,"4p-2.4p+ (0,3/2)*<3/2>",5740,90,,,,,,,,,,,
107,Bh LXXV,Bh,LXXV,74,Bohrium,As,[Ar].3d10.4s2.4p3,4p-2.4p+,"(0,3/2)*<3/2>",4p2 3P<0>,5830,90,,,,,,,,,,,
107,Bh LXXVI,Bh,LXXVI,75,Bohrium,Ge,[Ar].3d10.4s2.4p2,4p2,3P0,4p 2P*<1/2>,6650,100,,,,,,,,,,,
107,Bh LXXVII,Bh,LXXVII,76,Bohrium,Ga,[Ar].3d10.4s2.4p,4p,2P*<1/2>,4s2 1S<0>,6760,110,,,,,,,,,,,
107,Bh LXXVIII,Bh,LXXVIII,77,Bohrium,Zn,[Ar].3d10.4s2,4s2,1S0,4s 2S<1/2>,7040,120,,,,,,,,,,,
107,Bh LXXIX,Bh,LXXIX,78,Bohrium,Cu,[Ar].3d10.4s,4s,2S<1/2>,3d10 1S<0>,7140,120,,,,,,,,,,,
107,Bh LXXX,Bh,LXXX,79,Bohrium,Ni,[Ar].3d10,3d10,1S0,3d9 2D<5/2>,10930,140,,,,,,,,,,,
107,Bh LXXXI,Bh,LXXXI,80,Bohrium,Co,[Ar].3d9,3d9,2D<5/2>,3d8 3F<4>,11130,150,,,,,,,,,,,
107,Bh LXXXII,Bh,LXXXII,81,Bohrium,Fe,[Ar].3d8,3d8,3F<4>,3d7 4F<9/2>,11340,160,,,,,,,,,,,
107,Bh LXXXIII,Bh,LXXXIII,82,Bohrium,Mn,[Ar].3d7,3d7,4F<9/2>,"3d-4.3d+2 (0,4)<4>",11560,170,,,,,,,,,,,
107,Bh LXXXIV,Bh,LXXXIV,83,Bohrium,Cr,[Ar].3d6,3d-4.3d+2,"(0,4)<4>","3d-4.3d+ (0,5/2)<5/2>",11780,190,,,,,,,,,,,
107,Bh LXXXV,Bh,LXXXV,84,Bohrium,V,[Ar].3d5,3d-4.3d+,"(0,5/2)<5/2>",3d4 5D<0>,11980,200,,,,,,,,,,,
107,Bh LXXXVI,Bh,LXXXVI,85,Bohrium,Ti,[Ar].3d4,3d4,5D0,3d3 4F<3/2>,12610,220,,,,,,,,,,,
107,Bh LXXXVII,Bh,LXXXVII,86,Bohrium,Sc,[Ar].3d3,3d3,4F<3/2>,3d2 3F<2>,12830,240,,,,,,,,,,,
107,Bh LXXXVIII,Bh,LXXXVIII,87,Bohrium,Ca,[Ar].3d2,3d2,3F<2>,3d 2D<3/2>,13070,250,,,,,,,,,,,
107,Bh LXXXIX,Bh,LXXXIX,88,Bohrium,K,[Ar].3d,3d,2D<3/2>,3p6 1S<0>,13300,300,,,,,,,,,,,
107,Bh XC,Bh,XC,89,Bohrium,Ar,[Ne].3s2.3p6,3p6,1S0,3p5 2P*<3/2>,13900,300,,,,,,,,,,,
107,Bh XCI,Bh,XCI,90,Bohrium,Cl,[Ne].3s2.3p5,3p5,2P*<3/2>,3p4 3P<2>,14100,300,,,,,,,,,,,
107,Bh XCII,Bh,XCII,91,Bohrium,S,[Ne].3s2.3p4,3p4,3P<2>,3p3 2P*<3/2>,14300,300,,,,,,,,,,,
107,Bh XCIII,Bh,XCIII,92,Bohrium,P,[Ne].3s2.3p3,3p3,2P*<3/2>,3p2 3P<0>,14500,400,,,,,,,,,,,
107,Bh XCIV,Bh,XCIV,93,Bohrium,Si,[Ne].3s2.3p2,3p2,3P0,3p 2P*<1/2>,17000,400,,,,,,,,,,,
107,Bh XCV,Bh,XCV,94,Bohrium,Al,[Ne].3s2.3p,3p,2P*<1/2>,3s2 1S<0>,17300,400,,,,,,,,,,,
107,Bh XCVI,Bh,XCVI,95,Bohrium,Mg,[Ne].3s2,3s2,1S0,3s 2S<1/2>,17700,400,,,,,,,,,,,
107,Bh XCVII,Bh,XCVII,96,Bohrium,Na,[Ne].3s,3s,2S<1/2>,2p6 1S<0>,18000,400,,,,,,,,,,,
107,Bh XCVIII,Bh,XCVIII,97,Bohrium,Ne,1s2.2s2.2p6,2p6,1S0,2p5 2P*<3/2>,35200,400,,,,,,,,,,,
107,Bh XCIX,Bh,XCIX,98,Bohrium,F,1s2.2s2.2p5,2p5,2P*<3/2>,2p4 3P<2>,35700,500,,,,,,,,,,,
107,Bh C,Bh,C,99,Bohrium,O,1s2.2s2.2p4,2p4,3P<2>,"2p2<1/2>.2p<3/2> (0,3/2)*<3/2>",36300,500,,,,,,,,,,,
107,Bh CI,Bh,CI,100,Bohrium,N,1s2.2s2.2p3,2p2<1/2>.2p<3/2>,"(0,3/2)*<3/2>",2p2 3P<0>,36800,500,,,,,,,,,,,
107,Bh CII,Bh,CII,101,Bohrium,C,1s2.2s2.2p2,2p2,3P0,2p 2P*<1/2>,46100,500,,,,,,,,,,,
107,Bh CIII,Bh,CIII,102,Bohrium,B,1s2.2s2.2p,2p,2P*<1/2>,2s2 1S<0>,46900,500,,,,,,,,,,,
107,Bh CIV,Bh,CIV,103,Bohrium,Be,1s2.2s2,2s2,1S0,2s 2S<1/2>,47800,500,,,,,,,,,,,
107,Bh CV,Bh,CV,104,Bohrium,Li,1s2.2s,1s2.2s,2S<1/2>,1s2 1S<0>,,,,,,,,,,,,,
107,Bh CVI,Bh,CVI,105,Bohrium,He,1s2,1s2,1S0,1s 2S<1/2>,187260,12,,,,,,,,,,,
107,Bh CVII,Bh,CVII,106,Bohrium,H,1s,1s,2S<1/2>,,190329,12,,,,,,,,,,,
108,Hs I,Hs,I,0,Hassium,Hs,[Rn].5f14.6d6.7s2,6d6.7s2,<4>,6d5.7s2 <5/2>,7.6,0.5,,,,,,,,,,,
108,Hs II,Hs,II,1,Hassium,Bh,[Rn].5f14.6d5.7s2,6d5.7s2,<5/2>,6d5.7s <3>,18.2,0.5,,,,,,,,,,,
108,Hs III,Hs,III,2,Hassium,Sg,[Rn].5f14.6d5.7s,6d5.7s,<3>,6d4.7s <1/2>,29.3,0.5,,,,,,,,,,,
108,Hs IV,Hs,IV,3,Hassium,Db,[Rn].5f14.6d4.7s,6d4.7s,<1/2>,6d4 <0>,37.7,0.5,,,,,,,,,,,
108,Hs V,Hs,V,4,Hassium,Rf,[Rn].5f14.6d4,6d4,0,6d3 <3/2>,51.2,0.5,,,,,,,,,,,
108,Hs VI,Hs,VI,5,Hassium,Lr,[Rn].5f14.6d3,6d3,<3/2>,6d2 <2>,64,0.5,,,,,,,,,,,
108,Hs VII,Hs,VII,6,Hassium,No,[Rn].5f14.6d2,6d2,<2>,5f14.6d 2D<3/2>,78.1,0.5,,,,,,,,,,,
108,Hs VIII,Hs,VIII,7,Hassium,Md,[Rn].5f14.6d,5f14.6d,2D<3/2>,5f14 1S<0>,91.7,0.5,,,,,,,,,,,
108,Hs IX,Hs,IX,8,Hassium,Fm,[Rn].5f14,5f14,1S0,5f13 2F*<7/2>,159.9,2.2,,,,,,,,,,,
108,Hs X,Hs,X,9,Hassium,Es,[Rn].5f13,5f13,2F*<7/2>,5f12 3H<6>,173.9,2.2,,,,,,,,,,,
108,Hs XI,Hs,XI,10,Hassium,Cf,[Rn].5f12,5f12,3H<6>,5f11 4I*<15/2>,206.1,2.4,,,,,,,,,,,
108,Hs XII,Hs,XII,11,Hassium,Bk,[Rn].5f11,5f11,4I*<15/2>,5f10 5I<8>,227,2.5,,,,,,,,,,,
108,Hs XIII,Hs,XIII,12,Hassium,Cm,[Rn].5f10,5f10,5I<8>,5f9 6H*<15/2>,258,3,,,,,,,,,,,
108,Hs XIV,Hs,XIV,13,Hassium,Am,[Rn].5f9,5f9,6H*<15/2>,5f8 7F<6>,285,3,,,,,,,,,,,
108,Hs XV,Hs,XV,14,Hassium,Pu,[Rn].5f8,5f8,7F<6>,5f7 8S*<7/2>,314,3,,,,,,,,,,,
108,Hs XVI,Hs,XVI,15,Hassium,Np,[Rn].5f7,5f7,8S*<7/2>,5f6 7F<0>,351,3,,,,,,,,,,,
108,Hs XVII,Hs,XVII,16,Hassium,U,[Rn].5f6,5f6,7F0,5f5 6H*<5/2>,371,3,,,,,,,,,,,
108,Hs XVIII,Hs,XVIII,17,Hassium,Pa,[Rn].5f5,5f5,6H*<5/2>,5f4 5I<4>,409,3,,,,,,,,,,,
108,Hs XIX,Hs,XIX,18,Hassium,Th,[Rn].5f4,5f4,5I<4>,,,,,,,,,,,,,,
108,Hs XXXI,Hs,XXXI,30,Hassium,Pt,[Xe].4f14.5d10,5d10,1S0,5d9 2D<5/2>,984,4,,,,,,,,,,,
108,Hs XXXII,Hs,XXXII,31,Hassium,Ir,[Xe].4f14.5d9,5d9,2D<5/2>,5d8 3F<4>,1020,4,,,,,,,,,,,
108,Hs XXXIII,Hs,XXXIII,32,Hassium,Os,[Xe].4f14.5d8,5d8,3F<4>,5d7 4F<9/2>,1060,4,,,,,,,,,,,
108,Hs XXXIV,Hs,XXXIV,33,Hassium,Re,[Xe].4f14.5d7,5d7,4F<9/2>,5d6 5D<4>,1101,5,,,,,,,,,,,
108,Hs XXXV,Hs,XXXV,34,Hassium,W,[Xe].4f14.5d6,5d6,5D<4>,5d5 6S<5/2>,1140,5,,,,,,,,,,,
108,Hs XXXVI,Hs,XXXVI,35,Hassium,Ta,[Xe].4f14.5d5,5d5,6S<5/2>,5d4 5D<0>,1180,5,,,,,,,,,,,
108,Hs XXXVII,Hs,XXXVII,36,Hassium,Hf,[Xe].4f14.5d4,5d4,5D0,5d3 4F<3/2>,1253,5,,,,,,,,,,,
108,Hs XXXVIII,Hs,XXXVIII,37,Hassium,Lu,[Xe].4f14.5d3,5d3,4F<3/2>,5d2 3F<2>,1294,4,,,,,,,,,,,
108,Hs XXXIX,Hs,XXXIX,38,Hassium,Yb,[Xe].4f14.5d2,5d2,3F<2>,5d 2D<3/2>,1338,4,,,,,,,,,,,
108,Hs XL,Hs,XL,39,Hassium,Tm,[Xe].4f14.5d,5d,2D<3/2>,4f14 1S<0>,1379,4,,,,,,,,,,,
108,Hs XLI,Hs,XLI,40,Hassium,Er,[Xe].4f14,4f14,1S0,4f14.5p5 2P*<3/2>,,,,,,,,,,,,,
108,Hs XLII,Hs,XLII,41,Hassium,Ho,[Cd].4f14.5p5,4f14.5p5,2P*<3/2>,4f14.5p4 3P<2>,,,,,,,,,,,,,
108,Hs XLIII,Hs,XLIII,42,Hassium,Dy,[Cd].4f14.5p4,4f14.5p4,3P<2>,4f14.5p3 2P*<3/2>,,,,,,,,,,,,,
108,Hs XLIV,Hs,XLIV,43,Hassium,Tb,[Cd].4f14.5p3,4f14.5p3,2P*<3/2>,4f14.5p2 3P<0>,,,,,,,,,,,,,
108,Hs XLV,Hs,XLV,44,Hassium,Gd,[Cd].4f14.5p2,4f14.5p2,3P0,4f14.5p 2P*<1/2>,,,,,,,,,,,,,
108,Hs XLVI,Hs,XLVI,45,Hassium,Eu,[Cd].4f14.5p,4f14.5p,2P*<1/2>,4f14 1S<0>,,,,,,,,,,,,,
108,Hs XLVII,Hs,XLVII,46,Hassium,Sm,[Cd].4f14,4f14,1S0,4f14.5s 2S<1/2>,,,,,,,,,,,,,
108,Hs XLVIII,Hs,XLVIII,47,Hassium,Pm,[Kr].4d10.4f14.5s,4f14.5s,2S<1/2>,4f14 1S<0>,,,,,,,,,,,,,
108,Hs XLIX,Hs,XLIX,48,Hassium,Nd,[Kr].4d10.4f14,4f14,1S0,4f13 2F*<7/2>,,,,,,,,,,,,,
108,Hs L,Hs,L,49,Hassium,Pr,[Kr].4d10.4f13,4f13,2F*<7/2>,4f12,,,,,,,,,,,,,
108,Hs LI,Hs,LI,50,Hassium,Ce,[Kr].4d10.4f12,4f12,,4f11 4I*<15/2>,,,,,,,,,,,,,
108,Hs LII,Hs,LII,51,Hassium,La,[Kr].4d10.4f11,4f11,4I*<15/2>,4f10 5I<8>,,,,,,,,,,,,,
108,Hs LIII,Hs,LIII,52,Hassium,Ba,[Kr].4d10.4f10,4f10,5I<8>,4f9 6H*<15/2>,,,,,,,,,,,,,
108,Hs LIV,Hs,LIV,53,Hassium,Cs,[Kr].4d10.4f9,4f9,6H*<15/2>,4f8 7F<6>,,,,,,,,,,,,,
108,Hs LV,Hs,LV,54,Hassium,Xe,[Kr].4d10.4f8,4f8,7F<6>,4f7 8S*<7/2>,,,,,,,,,,,,,
108,Hs LVI,Hs,LVI,55,Hassium,I,[Kr].4d10.4f7,4f7,8S*<7/2>,4f6 7F<0>,,,,,,,,,,,,,
108,Hs LVII,Hs,LVII,56,Hassium,Te,[Kr].4d10.4f6,4f6,7F0,4f5 6H*<5/2>,,,,,,,,,,,,,
108,Hs LVIII,Hs,LVIII,57,Hassium,Sb,[Kr].4d10.4f5,4f5,6H*<5/2>,4f4 5I<4>,,,,,,,,,,,,,
108,Hs LIX,Hs,LIX,58,Hassium,Sn,[Kr].4d10.4f4,4f4,5I<4>,4f3 4I*<9/2>,,,,,,,,,,,,,
108,Hs LX,Hs,LX,59,Hassium,In,[Kr].4d10.4f3,4f3,4I*<9/2>,4f2 3H<4>,,,,,,,,,,,,,
108,Hs LXI,Hs,LXI,60,Hassium,Cd,[Kr].4d10.4f2,4f2,3H<4>,4f 2F*<5/2>,,,,,,,,,,,,,
108,Hs LXII,Hs,LXII,61,Hassium,Ag,[Kr].4d10.4f,4f,2F*<5/2>,4d10 1S<0>,,,,,,,,,,,,,
108,Hs LXIII,Hs,LXIII,62,Hassium,Pd,[Kr].4d10,4d10,1S0,4d9 2D<5/2>,4339,15,,,,,,,,,,,
108,Hs LXIV,Hs,LXIV,63,Hassium,Rh,[Kr].4d9,4d9,2D<5/2>,4d8 3F<4>,4425,19,,,,,,,,,,,
108,Hs LXV,Hs,LXV,64,Hassium,Ru,[Kr].4d8,4d8,3F<4>,4d7 4F<9/2>,4516,24,,,,,,,,,,,
108,Hs LXVI,Hs,LXVI,65,Hassium,Tc,[Kr].4d7,4d7,4F<9/2>,4d6 5D<4>,4610,30,,,,,,,,,,,
108,Hs LXVII,Hs,LXVII,66,Hassium,Mo,[Kr].4d6,4d6,5D<4>,"4d-4.4d+ (0,5/2)<5/2>",4700,40,,,,,,,,,,,
108,Hs LXVIII,Hs,LXVIII,67,Hassium,Nb,[Kr].4d5,4d-4.4d+,"(0,5/2)<5/2>",4d4 5D<0>,4790,40,,,,,,,,,,,
108,Hs LXIX,Hs,LXIX,68,Hassium,Zr,[Kr].4d4,4d4,5D0,4d3 4F<3/2>,5020,50,,,,,,,,,,,
108,Hs LXX,Hs,LXX,69,Hassium,Y,[Kr].4d3,4d3,4F<3/2>,4d2 3F<2>,5110,50,,,,,,,,,,,
108,Hs LXXI,Hs,LXXI,70,Hassium,Sr,[Kr].4d2,4d2,3F<2>,4d 2D<3/2>,5220,60,,,,,,,,,,,
108,Hs LXXII,Hs,LXXII,71,Hassium,Rb,[Kr].4d,4d,2D<3/2>,4p6 1S<0>,5310,60,,,,,,,,,,,
108,Hs LXXIII,Hs,LXXIII,72,Hassium,Kr,[Ar].3d10.4s2.4p6,4p6,1S0,4p5 2P*<3/2>,5700,70,,,,,,,,,,,
108,Hs LXXIV,Hs,LXXIV,73,Hassium,Br,[Ar].3d10.4s2.4p5,4p5,2P*<3/2>,4p4 3P<2>,5780,90,,,,,,,,,,,
108,Hs LXXV,Hs,LXXV,74,Hassium,Se,[Ar].3d10.4s2.4p4,4p4,3P<2>,"4p-2.4p+ (0,3/2)*<3/2>",5880,90,,,,,,,,,,,
108,Hs LXXVI,Hs,LXXVI,75,Hassium,As,[Ar].3d10.4s2.4p3,4p-2.4p+,"(0,3/2)*<3/2>",4p2 3P<0>,5980,100,,,,,,,,,,,
108,Hs LXXVII,Hs,LXXVII,76,Hassium,Ge,[Ar].3d10.4s2.4p2,4p2,3P0,4p 2P*<1/2>,6840,110,,,,,,,,,,,
108,Hs LXXVIII,Hs,LXXVIII,77,Hassium,Ga,[Ar].3d10.4s2.4p,4p,2P*<1/2>,4s2 1S<0>,6950,120,,,,,,,,,,,
108,Hs LXXIX,Hs,LXXIX,78,Hassium,Zn,[Ar].3d10.4s2,4s2,1S0,4s 2S<1/2>,7230,120,,,,,,,,,,,
108,Hs LXXX,Hs,LXXX,79,Hassium,Cu,[Ar].3d10.4s,4s,2S<1/2>,3d10 1S<0>,7340,140,,,,,,,,,,,
108,Hs LXXXI,Hs,LXXXI,80,Hassium,Ni,[Ar].3d10,3d10,1S0,3d9 2D<5/2>,11200,150,,,,,,,,,,,
108,Hs LXXXII,Hs,LXXXII,81,Hassium,Co,[Ar].3d9,3d9,2D<5/2>,3d8 3F<4>,11390,160,,,,,,,,,,,
108,Hs LXXXIII,Hs,LXXXIII,82,Hassium,Fe,[Ar].3d8,3d8,3F<4>,3d7 4F<9/2>,11610,170,,,,,,,,,,,
108,Hs LXXXIV,Hs,LXXXIV,83,Hassium,Mn,[Ar].3d7,3d7,4F<9/2>,"3d-4.3d+2 (0,4)<4>",11830,190,,,,,,,,,,,
108,Hs LXXXV,Hs,LXXXV,84,Hassium,Cr,[Ar].3d6,3d-4.3d+2,"(0,4)<4>","3d-4.3d+ (0,5/2)<5/2>",12040,200,,,,,,,,,,,
108,Hs LXXXVI,Hs,LXXXVI,85,Hassium,V,[Ar].3d5,3d-4.3d+,"(0,5/2)<5/2>",3d4 5D<0>,12250,220,,,,,,,,,,,
108,Hs LXXXVII,Hs,LXXXVII,86,Hassium,Ti,[Ar].3d4,3d4,5D0,3d3 4F<3/2>,12910,240,,,,,,,,,,,
108,Hs LXXXVIII,Hs,LXXXVIII,87,Hassium,Sc,[Ar].3d3,3d3,4F<3/2>,3d2 3F<2>,13130,250,,,,,,,,,,,
108,Hs LXXXIX,Hs,LXXXIX,88,Hassium,Ca,[Ar].3d2,3d2,3F<2>,3d 2D<3/2>,13400,300,,,,,,,,,,,
108,Hs XC,Hs,XC,89,Hassium,K,[Ar].3d,3d,2D<3/2>,3p6 1S<0>,13600,300,,,,,,,,,,,
108,Hs XCI,Hs,XCI,90,Hassium,Ar,[Ne].3s2.3p6,3p6,1S0,3p5 2P*<3/2>,14200,300,,,,,,,,,,,
108,Hs XCII,Hs,XCII,91,Hassium,Cl,[Ne].3s2.3p5,3p5,2P*<3/2>,3p4 3P<2>,14400,300,,,,,,,,,,,
108,Hs XCIII,Hs,XCIII,92,Hassium,S,[Ne].3s2.3p4,3p4,3P<2>,3p3 2P*<3/2>,14600,400,,,,,,,,,,,
108,Hs XCIV,Hs,XCIV,93,Hassium,P,[Ne].3s2.3p3,3p3,2P*<3/2>,3p2 3P<0>,14800,400,,,,,,,,,,,
108,Hs XCV,Hs,XCV,94,Hassium,Si,[Ne].3s2.3p2,3p2,3P0,3p 2P*<1/2>,17500,400,,,,,,,,,,,
108,Hs XCVI,Hs,XCVI,95,Hassium,Al,[Ne].3s2.3p,3p,2P*<1/2>,3s2 1S<0>,17700,400,,,,,,,,,,,
108,Hs XCVII,Hs,XCVII,96,Hassium,Mg,[Ne].3s2,3s2,1S0,3s 2S<1/2>,18200,400,,,,,,,,,,,
108,Hs XCVIII,Hs,XCVIII,97,Hassium,Na,[Ne].3s,3s,2S<1/2>,2p6 1S<0>,18400,400,,,,,,,,,,,
108,Hs XCIX,Hs,XCIX,98,Hassium,Ne,1s2.2s2.2p6,2p6,1S0,2p5 2P*<3/2>,35900,500,,,,,,,,,,,
108,Hs C,Hs,C,99,Hassium,F,1s2.2s2.2p5,2p5,2P*<3/2>,2p4 3P<2>,36400,500,,,,,,,,,,,
108,Hs CI,Hs,CI,100,Hassium,O,1s2.2s2.2p4,2p4,3P<2>,"2p2<1/2>.2p<3/2> (0,3/2)*<3/2>",37000,500,,,,,,,,,,,
108,Hs CII,Hs,CII,101,Hassium,N,1s2.2s2.2p3,2p2<1/2>.2p<3/2>,"(0,3/2)*<3/2>",2p2 3P<0>,37500,500,,,,,,,,,,,
108,Hs CIII,Hs,CIII,102,Hassium,C,1s2.2s2.2p2,2p2,3P0,2p 2P*<1/2>,47300,500,,,,,,,,,,,
108,Hs CIV,Hs,CIV,103,Hassium,B,1s2.2s2.2p,2p,2P*<1/2>,2s2 1S<0>,48100,500,,,,,,,,,,,
108,Hs CV,Hs,CV,104,Hassium,Be,1s2.2s2,2s2,1S0,2s 2S<1/2>,49000,600,,,,,,,,,,,
108,Hs CVI,Hs,CVI,105,Hassium,Li,1s2.2s,1s2.2s,2S<1/2>,1s2 1S<0>,,,,,,,,,,,,,
108,Hs CVII,Hs,CVII,106,Hassium,He,1s2,1s2,1S0,1s 2S<1/2>,191784,12,,,,,,,,,,,
108,Hs CVIII,Hs,CVIII,107,Hassium,H,1s,1s,2S<1/2>,,194911,14,,,,,,,,,,,
109,Mt V,Mt,V,4,Meitnerium,Db,[Rn].5f14.6d5,6d5,<5/2>,6d4 <0>,50,1.9,,,,,,,,,,,
109,Mt VI,Mt,VI,5,Meitnerium,Rf,[Rn].5f14.6d4,6d4,0,6d3 <3/2>,,,,,,,,,,,,,
109,Mt VII,Mt,VII,6,Meitnerium,Lr,[Rn].5f14.6d3,6d2.7s,<3/2>,6d2 <2>,,,,,,,,,,,,,
109,Mt VIII,Mt,VIII,7,Meitnerium,No,[Rn].5f14.6d2,6d2,<2>,5f14.6d 2D<3/2>,94,2.1,,,,,,,,,,,
109,Mt IX,Mt,IX,8,Meitnerium,Md,[Rn].5f14.6d,5f14.6d,2D<3/2>,5f14 1S<0>,109,2.2,,,,,,,,,,,
109,Mt X,Mt,X,9,Meitnerium,Fm,[Rn].5f14,5f14,1S0,5f13 2F*<7/2>,187,2.2,,,,,,,,,,,
109,Mt XI,Mt,XI,10,Meitnerium,Es,[Rn].5f13,5f13,2F*<7/2>,5f12 3H<6>,202,2.4,,,,,,,,,,,
109,Mt XII,Mt,XII,11,Meitnerium,Cf,[Rn].5f12,5f12,3H<6>,5f11 4I*<15/2>,235.9,2.5,,,,,,,,,,,
109,Mt XIII,Mt,XIII,12,Meitnerium,Bk,[Rn].5f11,5f11,4I*<15/2>,5f10 5I<8>,257,3,,,,,,,,,,,
109,Mt XIV,Mt,XIV,13,Meitnerium,Cm,[Rn].5f10,5f10,5I<8>,5f9 6H*<15/2>,289,3,,,,,,,,,,,
109,Mt XV,Mt,XV,14,Meitnerium,Am,[Rn].5f9,5f9,6H*<15/2>,5f8 7F<6>,318,3,,,,,,,,,,,
109,Mt XVI,Mt,XVI,15,Meitnerium,Pu,[Rn].5f8,5f8,7F<6>,5f7 8S*<7/2>,346,3,,,,,,,,,,,
109,Mt XVII,Mt,XVII,16,Meitnerium,Np,[Rn].5f7,5f7,8S*<7/2>,5f6 7F<0>,386,3,,,,,,,,,,,
109,Mt XVIII,Mt,XVIII,17,Meitnerium,U,[Rn].5f6,5f6,7F0,5f5 6H*<5/2>,406,3,,,,,,,,,,,
109,Mt XIX,Mt,XIX,18,Meitnerium,Pa,[Rn].5f5,5f5,6H*<5/2>,5f4 5I<4>,445,3,,,,,,,,,,,
109,Mt XX,Mt,XX,19,Meitnerium,Th,[Rn].5f4,5f4,5I<4>,,,,,,,,,,,,,,
109,Mt XXXII,Mt,XXXII,31,Meitnerium,Pt,[Xe].4f14.5d10,5d10,1S0,5d9 2D<5/2>,1035,4,,,,,,,,,,,
109,Mt XXXIII,Mt,XXXIII,32,Meitnerium,Ir,[Xe].4f14.5d9,5d9,2D<5/2>,5d8 3F<4>,1072,4,,,,,,,,,,,
109,Mt XXXIV,Mt,XXXIV,33,Meitnerium,Os,[Xe].4f14.5d8,5d8,3F<4>,5d7 4F<9/2>,1112,5,,,,,,,,,,,
109,Mt XXXV,Mt,XXXV,34,Meitnerium,Re,[Xe].4f14.5d7,5d7,4F<9/2>,5d6 5D<4>,1154,5,,,,,,,,,,,
109,Mt XXXVI,Mt,XXXVI,35,Meitnerium,W,[Xe].4f14.5d6,5d6,5D<4>,5d5 6S<5/2>,1195,5,,,,,,,,,,,
109,Mt XXXVII,Mt,XXXVII,36,Meitnerium,Ta,[Xe].4f14.5d5,5d5,6S<5/2>,5d4 5D<0>,1234,5,,,,,,,,,,,
109,Mt XXXVIII,Mt,XXXVIII,37,Meitnerium,Hf,[Xe].4f14.5d4,5d4,5D0,5d3 4F<3/2>,1311,4,,,,,,,,,,,
109,Mt XXXIX,Mt,XXXIX,38,Meitnerium,Lu,[Xe].4f14.5d3,5d3,4F<3/2>,5d2 3F<2>,1352,4,,,,,,,,,,,
109,Mt XL,Mt,XL,39,Meitnerium,Yb,[Xe].4f14.5d2,5d2,3F<2>,5d 2D<3/2>,1397,4,,,,,,,,,,,
109,Mt XLI,Mt,XLI,40,Meitnerium,Tm,[Xe].4f14.5d,5d,2D<3/2>,4f14 1S<0>,1439,4,,,,,,,,,,,