At. num,Sp. Name,Element,Valence,Ion Charge,El. Name,Isoel. Seq.,Ground Shells (a),Ground Config.,Ground Level,Ionized Level,Ionization Energy (b) (eV),Uncertainty (c) (eV),,,,,,,,,,,
83,Bi XVII,Bi,XVII,16,Bismuth,Ho,[Cd].4f14.5p5,4f14.5p5,2P*<3/2>,4f14.5p4 3P<2>,409,20,,,,,,,,,,,
83,Bi XVIII,Bi,XVIII,17,Bismuth,Dy,[Cd].4f14.5p4,4f14.5p4,3P<2>,4f14.5p3 2P*<3/2>,436,22,,,,,,,,,,,
83,Bi XIX,Bi,XIX,18,Bismuth,Tb,[Cd].4f14.5p3,4f14.5p3,2P*<3/2>,4f14.5p2 3P<0>,464,23,,,,,,,,,,,
83,Bi XX,Bi,XX,19,Bismuth,Gd,[Cd].4f14.5p2,4f14.5p2,3P0,4f14.5p 2P*<1/2>,520,30,,,,,,,,,,,
83,Bi XXI,Bi,XXI,20,Bismuth,Eu,[Cd].4f14.5p,4f14.5p,2P*<1/2>,4f14 1S<0>,550,30,,,,,,,,,,,
83,Bi XXII,Bi,XXII,21,Bismuth,Sm,[Cd].4f14,4f14,1S0,4f13.5s2 2F*<7/2>,620,30,,,,,,,,,,,
83,Bi XXIII,Bi,XXIII,22,Bismuth,Pm,[Cd].4f13,4f13.5s2,2F*<7/2>,4f13.5s*,660,30,,,,,,,,,,,
83,Bi XXIV,Bi,XXIV,23,Bismuth,Nd,[Kr].4d10.4f13.5s,4f13.5s,*,4f13 2F*<7/2>,690,30,,,,,,,,,,,
83,Bi XXV,Bi,XXV,24,Bismuth,Pr,[Kr].4d10.4f13,4f13,2F*<7/2>,4f12,750,40,,,,,,,,,,,
83,Bi XXVI,Bi,XXVI,25,Bismuth,Ce,[Kr].4d10.4f12,4f12,,4f11 4I*<15/2>,810,40,,,,,,,,,,,
83,Bi XXVII,Bi,XXVII,26,Bismuth,La,[Kr].4d10.4f11,4f11,4I*<15/2>,4f10 5I<8>,870,50,,,,,,,,,,,
83,Bi XXVIII,Bi,XXVIII,27,Bismuth,Ba,[Kr].4d10.4f10,4f10,5I<8>,4f9 6H*<15/2>,930,50,,,,,,,,,,,
83,Bi XXIX,Bi,XXIX,28,Bismuth,Cs,[Kr].4d10.4f9,4f9,6H*<15/2>,4f8 7F<6>,990,50,,,,,,,,,,,
83,Bi XXX,Bi,XXX,29,Bismuth,Xe,[Kr].4d10.4f8,4f8,7F<6>,4f7 8S*<7/2>,1060,50,,,,,,,,,,,
83,Bi XXXI,Bi,XXXI,30,Bismuth,I,[Kr].4d10.4f7,4f7,8S*<7/2>,4f6 7F<0>,1120,60,,,,,,,,,,,
83,Bi XXXII,Bi,XXXII,31,Bismuth,Te,[Kr].4d10.4f6,4f6,7F0,4f5 6H*<5/2>,1180,60,,,,,,,,,,,
83,Bi XXXIII,Bi,XXXIII,32,Bismuth,Sb,[Kr].4d10.4f5,4f5,6H*<5/2>,4f4 5I<4>,1250,60,,,,,,,,,,,
83,Bi XXXIV,Bi,XXXIV,33,Bismuth,Sn,[Kr].4d10.4f4,4f4,5I<4>,4f3 4I*<9/2>,1310,70,,,,,,,,,,,
83,Bi XXXV,Bi,XXXV,34,Bismuth,In,[Kr].4d10.4f3,4f3,4I*<9/2>,4f2 3H<4>,1380,70,,,,,,,,,,,
83,Bi XXXVI,Bi,XXXVI,35,Bismuth,Cd,[Kr].4d10.4f2,4f2,3H<4>,4f 2F*<5/2>,1440,70,,,,,,,,,,,
83,Bi XXXVII,Bi,XXXVII,36,Bismuth,Ag,[Kr].4d10.4f,4f,2F*<5/2>,4d10 1S<0>,1500,70,,,,,,,,,,,
83,Bi XXXVIII,Bi,XXXVIII,37,Bismuth,Pd,[Kr].4d10,4d10,1S0,4d9 2D<5/2>,1784,4,,,,,,,,,,,
83,Bi XXXIX,Bi,XXXIX,38,Bismuth,Rh,[Kr].4d9,4d9,2D<5/2>,4d8 3F<4>,1840,4,,,,,,,,,,,
83,Bi XL,Bi,XL,39,Bismuth,Ru,[Kr].4d8,4d8,3F<4>,4d7 4F<9/2>,1902,4,,,,,,,,,,,
83,Bi XLI,Bi,XLI,40,Bismuth,Tc,[Kr].4d7,4d7,4F<9/2>,4d6 5D<4>,1967,4,,,,,,,,,,,
83,Bi XLII,Bi,XLII,41,Bismuth,Mo,[Kr].4d6,4d6,5D<4>,"4d-4.4d+ (0,5/2)<5/2>",2029,4,,,,,,,,,,,
83,Bi XLIII,Bi,XLIII,42,Bismuth,Nb,[Kr].4d5,4d-4.4d+,"(0,5/2)<5/2>",4d4 5D<0>,2090,4,,,,,,,,,,,
83,Bi XLIV,Bi,XLIV,43,Bismuth,Zr,[Kr].4d4,4d4,5D0,4d3 4F<3/2>,2190,4,,,,,,,,,,,
83,Bi XLV,Bi,XLV,44,Bismuth,Y,[Kr].4d3,4d3,4F<3/2>,4d2 3F<2>,2253,4,,,,,,,,,,,
83,Bi XLVI,Bi,XLVI,45,Bismuth,Sr,[Kr].4d2,4d2,3F<2>,4d 2D<3/2>,2321,4,,,,,,,,,,,
83,Bi XLVII,Bi,XLVII,46,Bismuth,Rb,[Kr].4d,4d,2D<3/2>,4p6 1S<0>,2385,4,,,,,,,,,,,
83,Bi XLVIII,Bi,XLVIII,47,Bismuth,Kr,[Ar].3d10.4s2.4p6,4p6,1S0,4p5 2P*<3/2>,2641,4,,,,,,,,,,,
83,Bi XLIX,Bi,XLIX,48,Bismuth,Br,[Ar].3d10.4s2.4p5,4p5,2P*<3/2>,4p4 3P<2>,2703,4,,,,,,,,,,,
83,Bi L,Bi,L,49,Bismuth,Se,[Ar].3d10.4s2.4p4,4p4,3P<2>,"4p-2.4p+ (0,3/2)*<3/2>",2771,4,,,,,,,,,,,
83,Bi LI,Bi,LI,50,Bismuth,As,[Ar].3d10.4s2.4p3,4p-2.4p+,"(0,3/2)*<3/2>",4p2 3P<0>,2835,4,,,,,,,,,,,
83,Bi LII,Bi,LII,51,Bismuth,Ge,[Ar].3d10.4s2.4p2,4p2,3P0,4p 2P*<1/2>,3078,4,,,,,,,,,,,
83,Bi LIII,Bi,LIII,52,Bismuth,Ga,[Ar].3d10.4s2.4p,4p,2P*<1/2>,4s2 1S<0>,3151,4,,,,,,,,,,,
83,Bi LIV,Bi,LIV,53,Bismuth,Zn,[Ar].3d10.4s2,4s2,1S0,4s 2S<1/2>,3329,5,,,,,,,,,,,
83,Bi LV,Bi,LV,54,Bismuth,Cu,[Ar].3d10.4s,4s,2S<1/2>,3d10 1S<0>,3401.8,2.4,,,,,,,,,,,
83,Bi LVI,Bi,LVI,55,Bismuth,Ni,[Ar].3d10,3d10,1S0,3d9 2D<5/2>,5599,5,,,,,,,,,,,
83,Bi LVII,Bi,LVII,56,Bismuth,Co,[Ar].3d9,3d9,2D<5/2>,3d8 3F<4>,5740,5,,,,,,,,,,,
83,Bi LVIII,Bi,LVIII,57,Bismuth,Fe,[Ar].3d8,3d8,3F<4>,3d7 4F<9/2>,5892,6,,,,,,,,,,,
83,Bi LIX,Bi,LIX,58,Bismuth,Mn,[Ar].3d7,3d7,4F<9/2>,"3d-4.3d+2 (0,4)<4>",6054,6,,,,,,,,,,,
83,Bi LX,Bi,LX,59,Bismuth,Cr,[Ar].3d6,3d-4.3d+2,"(0,4)<4>","3d-4.3d+ (0,5/2)<5/2>",6208,7,,,,,,,,,,,
83,Bi LXI,Bi,LXI,60,Bismuth,V,[Ar].3d5,3d-4.3d+,"(0,5/2)<5/2>",3d4 5D<0>,6358,10,,,,,,,,,,,
83,Bi LXII,Bi,LXII,61,Bismuth,Ti,[Ar].3d4,3d4,5D0,3d3 4F<3/2>,6648,12,,,,,,,,,,,
83,Bi LXIII,Bi,LXIII,62,Bismuth,Sc,[Ar].3d3,3d3,4F<3/2>,3d2 3F<2>,6804,15,,,,,,,,,,,
83,Bi LXIV,Bi,LXIV,63,Bismuth,Ca,[Ar].3d2,3d2,3F<2>,3d 2D<3/2>,6977,19,,,,,,,,,,,
83,Bi LXV,Bi,LXV,64,Bismuth,K,[Ar].3d,3d,2D<3/2>,3p6 1S<0>,7137,24,,,,,,,,,,,
83,Bi LXVI,Bi,LXVI,65,Bismuth,Ar,[Ne].3s2.3p6,3p6,1S0,3p5 2P*<3/2>,7580,30,,,,,,,,,,,
83,Bi LXVII,Bi,LXVII,66,Bismuth,Cl,[Ne].3s2.3p5,3p5,2P*<3/2>,3p4 3P<2>,7720,40,,,,,,,,,,,
83,Bi LXVIII,Bi,LXVIII,67,Bismuth,S,[Ne].3s2.3p4,3p4,3P<2>,3p3 2P*<3/2>,7870,40,,,,,,,,,,,
83,Bi LXIX,Bi,LXIX,68,Bismuth,P,[Ne].3s2.3p3,3p3,2P*<3/2>,3p2 3P<0>,8010,50,,,,,,,,,,,
83,Bi LXX,Bi,LXX,69,Bismuth,Si,[Ne].3s2.3p2,3p2,3P0,3p 2P*<1/2>,8780,50,,,,,,,,,,,
83,Bi LXXI,Bi,LXXI,70,Bismuth,Al,[Ne].3s2.3p,3p,2P*<1/2>,3s2 1S<0>,8950,60,,,,,,,,,,,
83,Bi LXXII,Bi,LXXII,71,Bismuth,Mg,[Ne].3s2,3s2,1S0,3s 2S<1/2>,9270,60,,,,,,,,,,,
83,Bi LXXIII,Bi,LXXIII,72,Bismuth,Na,[Ne].3s,3s,2S<1/2>,2p6 1S<0>,9430,70,,,,,,,,,,,
83,Bi LXXIV,Bi,LXXIV,73,Bismuth,Ne,1s2.2s2.2p6,2p6,1S0,2p5 2P*<3/2>,20130,90,,,,,,,,,,,
83,Bi LXXV,Bi,LXXV,74,Bismuth,F,1s2.2s2.2p5,2p5,2P*<3/2>,2p4 3P<2>,20500,90,,,,,,,,,,,
83,Bi LXXVI,Bi,LXXVI,75,Bismuth,O,1s2.2s2.2p4,2p4,3P<2>,"2p2<1/2>.2p<3/2> (0,3/2)*<3/2>",20920,100,,,,,,,,,,,
83,Bi LXXVII,Bi,LXXVII,76,Bismuth,N,1s2.2s2.2p3,2p2<1/2>.2p<3/2>,"(0,3/2)*<3/2>",2p2 3P<0>,21300,110,,,,,,,,,,,
83,Bi LXXVIII,Bi,LXXVIII,77,Bismuth,C,1s2.2s2.2p2,2p2,3P0,2p 2P*<1/2>,24150,120,,,,,,,,,,,
83,Bi LXXIX,Bi,LXXIX,78,Bismuth,B,1s2.2s2.2p,2p,2P*<1/2>,2s2 1S<0>,24640,120,,,,,,,,,,,
83,Bi LXXX,Bi,LXXX,79,Bismuth,Be,1s2.2s2,2s2,1S0,2s 2S<1/2>,25260,140,,,,,,,,,,,
83,Bi LXXXI,Bi,LXXXI,80,Bismuth,Li,1s2.2s,1s2.2s,2S<1/2>,1s2 1S<0>,25656.9,0.4,,,,,,,,,,,
83,Bi LXXXII,Bi,LXXXII,81,Bismuth,He,1s2,1s2,1S0,1s 2S<1/2>,102251.8,0.4,,,,,,,,,,,
83,Bi LXXXIII,Bi,LXXXIII,82,Bismuth,H,1s,1s,2S<1/2>,,104133.4,0.3,,,,,,,,,,,
84,Po I,Po,I,0,Polonium,Po,[Hg].6p4,6p4,3P<2>,6p3 4S*<3/2>,8.41807,0.000004,,,,,,,,,,,
84,Po II,Po,II,1,Polonium,Bi,[Hg].6p3,6p3,4S*<3/2>,6p2 3P<0>,19.3,1.7,,,,,,,,,,,
84,Po III,Po,III,2,Polonium,Pb,[Hg].6p2,6p2,3P0,6p 2P*<1/2>,27.3,0.7,,,,,,,,,,,
84,Po IV,Po,IV,3,Polonium,Tl,[Hg].6p,6p,2P*<1/2>,6s2 1S<0>,36,1.7,,,,,,,,,,,
84,Po V,Po,V,4,Polonium,Hg,[Xe].4f14.5d10.6s2,6s2,1S0,6s 2S<1/2>,57,1.9,,,,,,,,,,,
84,Po VI,Po,VI,5,Polonium,Au,[Xe].4f14.5d10.6s,6s,2S<1/2>,5d10 1S<0>,69.1,2,,,,,,,,,,,
84,Po VII,Po,VII,6,Polonium,Pt,[Xe].4f14.5d10,5d10,1S0,5d9 2D<5/2>,108,2,,,,,,,,,,,
84,Po VIII,Po,VIII,7,Polonium,Ir,[Xe].4f14.5d9,5d9,2D<5/2>,5d8 3F<4>,125,2.1,,,,,,,,,,,
84,Po IX,Po,IX,8,Polonium,Os,[Xe].4f14.5d8,5d8,3F<4>,5d7 4F<9/2>,146.1,2.2,,,,,,,,,,,
84,Po X,Po,X,9,Polonium,Re,[Xe].4f14.5d7,5d7,4F<9/2>,5d6 5D<4>,166,2.2,,,,,,,,,,,
84,Po XI,Po,XI,10,Polonium,W,[Xe].4f14.5d6,5d6,5D<4>,5d5 6S<5/2>,186,2.4,,,,,,,,,,,
84,Po XII,Po,XII,11,Polonium,Ta,[Xe].4f14.5d5,5d5,6S<5/2>,5d4 5D<0>,209,2.5,,,,,,,,,,,
84,Po XIII,Po,XIII,12,Polonium,Hf,[Xe].4f14.5d4,5d4,5D0,5d3 4F<3/2>,235,3,,,,,,,,,,,
84,Po XIV,Po,XIV,13,Polonium,Lu,[Xe].4f14.5d3,5d3,4F<3/2>,5d2 3F<2>,257,3,,,,,,,,,,,
84,Po XV,Po,XV,14,Polonium,Yb,[Xe].4f14.5d2,5d2,3F<2>,5d 2D<3/2>,281,3,,,,,,,,,,,
84,Po XVI,Po,XVI,15,Polonium,Tm,[Xe].4f14.5d,5d,2D<3/2>,4f14 1S<0>,304,3,,,,,,,,,,,
84,Po XVII,Po,XVII,16,Polonium,Er,[Xe].4f14,4f14,1S0,4f14.5p5 2P*<3/2>,416,21,,,,,,,,,,,
84,Po XVIII,Po,XVIII,17,Polonium,Ho,[Cd].4f14.5p5,4f14.5p5,2P*<3/2>,4f14.5p4 3P<2>,444,22,,,,,,,,,,,
84,Po XIX,Po,XIX,18,Polonium,Dy,[Cd].4f14.5p4,4f14.5p4,3P<2>,4f14.5p3 2P*<3/2>,473,24,,,,,,,,,,,
84,Po XX,Po,XX,19,Polonium,Tb,[Cd].4f14.5p3,4f14.5p3,2P*<3/2>,4f14.5p2 3P<0>,502,25,,,,,,,,,,,
84,Po XXI,Po,XXI,20,Polonium,Gd,[Cd].4f14.5p2,4f14.5p2,3P0,4f14.5p 2P*<1/2>,560,30,,,,,,,,,,,
84,Po XXII,Po,XXII,21,Polonium,Eu,[Cd].4f14.5p,4f14.5p,2P*<1/2>,4f14 1S<0>,590,30,,,,,,,,,,,
84,Po XXIII,Po,XXIII,22,Polonium,Sm,[Cd].4f14,4f14,1S0,4f14.5s 2S<1/2>,670,30,,,,,,,,,,,
84,Po XXIV,Po,XXIV,23,Polonium,Pm,[Kr].4d10.4f14.5s,4f14.5s,2S<1/2>,4f14 1S<0>,700,30,,,,,,,,,,,
84,Po XXV,Po,XXV,24,Polonium,Nd,[Kr].4d10.4f14,4f14,1S0,4f13 2F*<7/2>,740,40,,,,,,,,,,,
84,Po XXVI,Po,XXVI,25,Polonium,Pr,[Kr].4d10.4f13,4f13,2F*<7/2>,4f12,800,40,,,,,,,,,,,
84,Po XXVII,Po,XXVII,26,Polonium,Ce,[Kr].4d10.4f12,4f12,,4f11 4I*<15/2>,870,40,,,,,,,,,,,
84,Po XXVIII,Po,XXVIII,27,Polonium,La,[Kr].4d10.4f11,4f11,4I*<15/2>,4f10 5I<8>,930,50,,,,,,,,,,,
84,Po XXIX,Po,XXIX,28,Polonium,Ba,[Kr].4d10.4f10,4f10,5I<8>,4f9 6H*<15/2>,990,50,,,,,,,,,,,
84,Po XXX,Po,XXX,29,Polonium,Cs,[Kr].4d10.4f9,4f9,6H*<15/2>,4f8 7F<6>,1060,50,,,,,,,,,,,
84,Po XXXI,Po,XXXI,30,Polonium,Xe,[Kr].4d10.4f8,4f8,7F<6>,4f7 8S*<7/2>,1120,60,,,,,,,,,,,
84,Po XXXII,Po,XXXII,31,Polonium,I,[Kr].4d10.4f7,4f7,8S*<7/2>,4f6 7F<0>,1180,60,,,,,,,,,,,
84,Po XXXIII,Po,XXXIII,32,Polonium,Te,[Kr].4d10.4f6,4f6,7F0,4f5 6H*<5/2>,1250,60,,,,,,,,,,,
84,Po XXXIV,Po,XXXIV,33,Polonium,Sb,[Kr].4d10.4f5,4f5,6H*<5/2>,4f4 5I<4>,1320,70,,,,,,,,,,,
84,Po XXXV,Po,XXXV,34,Polonium,Sn,[Kr].4d10.4f4,4f4,5I<4>,4f3 4I*<9/2>,1380,70,,,,,,,,,,,
84,Po XXXVI,Po,XXXVI,35,Polonium,In,[Kr].4d10.4f3,4f3,4I*<9/2>,4f2 3H<4>,1440,70,,,,,,,,,,,
84,Po XXXVII,Po,XXXVII,36,Polonium,Cd,[Kr].4d10.4f2,4f2,3H<4>,4f 2F*<5/2>,1510,70,,,,,,,,,,,
84,Po XXXVIII,Po,XXXVIII,37,Polonium,Ag,[Kr].4d10.4f,4f,2F*<5/2>,4d10 1S<0>,1570,70,,,,,,,,,,,
84,Po XXXIX,Po,XXXIX,38,Polonium,Pd,[Kr].4d10,4d10,1S0,4d9 2D<5/2>,1865,4,,,,,,,,,,,
84,Po XL,Po,XL,39,Polonium,Rh,[Kr].4d9,4d9,2D<5/2>,4d8 3F<4>,1923,4,,,,,,,,,,,
84,Po XLI,Po,XLI,40,Polonium,Ru,[Kr].4d8,4d8,3F<4>,4d7 4F<9/2>,1986,4,,,,,,,,,,,
84,Po XLII,Po,XLII,41,Polonium,Tc,[Kr].4d7,4d7,4F<9/2>,4d6 5D<4>,2052,4,,,,,,,,,,,
84,Po XLIII,Po,XLIII,42,Polonium,Mo,[Kr].4d6,4d6,5D<4>,"4d-4.4d+ (0,5/2)<5/2>",2115,4,,,,,,,,,,,
84,Po XLIV,Po,XLIV,43,Polonium,Nb,[Kr].4d5,4d-4.4d+,"(0,5/2)<5/2>",4d4 5D<0>,2177,4,,,,,,,,,,,
84,Po XLV,Po,XLV,44,Polonium,Zr,[Kr].4d4,4d4,5D0,4d3 4F<3/2>,2281,4,,,,,,,,,,,
84,Po XLVI,Po,XLVI,45,Polonium,Y,[Kr].4d3,4d3,4F<3/2>,4d2 3F<2>,2345,4,,,,,,,,,,,
84,Po XLVII,Po,XLVII,46,Polonium,Sr,[Kr].4d2,4d2,3F<2>,4d 2D<3/2>,2414,4,,,,,,,,,,,
84,Po XLVIII,Po,XLVIII,47,Polonium,Rb,[Kr].4d,4d,2D<3/2>,4p6 1S<0>,2480,4,,,,,,,,,,,
84,Po XLIX,Po,XLIX,48,Polonium,Kr,[Ar].3d10.4s2.4p6,4p6,1S0,4p5 2P*<3/2>,2740,4,,,,,,,,,,,
84,Po L,Po,L,49,Polonium,Br,[Ar].3d10.4s2.4p5,4p5,2P*<3/2>,4p4 3P<2>,2803,4,,,,,,,,,,,
84,Po LI,Po,LI,50,Polonium,Se,[Ar].3d10.4s2.4p4,4p4,3P<2>,"4p-2.4p+ (0,3/2)*<3/2>",2873,4,,,,,,,,,,,
84,Po LII,Po,LII,51,Polonium,As,[Ar].3d10.4s2.4p3,4p-2.4p+,"(0,3/2)*<3/2>",4p2 3P<0>,2938,4,,,,,,,,,,,
84,Po LIII,Po,LIII,52,Polonium,Ge,[Ar].3d10.4s2.4p2,4p2,3P0,4p 2P*<1/2>,3194,4,,,,,,,,,,,
84,Po LIV,Po,LIV,53,Polonium,Ga,[Ar].3d10.4s2.4p,4p,2P*<1/2>,4s2 1S<0>,3268,5,,,,,,,,,,,
84,Po LV,Po,LV,54,Polonium,Zn,[Ar].3d10.4s2,4s2,1S0,4s 2S<1/2>,3450,5,,,,,,,,,,,
84,Po LVI,Po,LVI,55,Polonium,Cu,[Ar].3d10.4s,4s,2S<1/2>,3d10 1S<0>,3524.2,2.5,,,,,,,,,,,
84,Po LVII,Po,LVII,56,Polonium,Ni,[Ar].3d10,3d10,1S0,3d9 2D<5/2>,5785,5,,,,,,,,,,,
84,Po LVIII,Po,LVIII,57,Polonium,Co,[Ar].3d9,3d9,2D<5/2>,3d8 3F<4>,5930,6,,,,,,,,,,,
84,Po LIX,Po,LIX,58,Polonium,Fe,[Ar].3d8,3d8,3F<4>,3d7 4F<9/2>,6084,6,,,,,,,,,,,
84,Po LX,Po,LX,59,Polonium,Mn,[Ar].3d7,3d7,4F<9/2>,"3d-4.3d+2 (0,4)<4>",6248,7,,,,,,,,,,,
84,Po LXI,Po,LXI,60,Polonium,Cr,[Ar].3d6,3d-4.3d+2,"(0,4)<4>","3d-4.3d+ (0,5/2)<5/2>",6405,10,,,,,,,,,,,
84,Po LXII,Po,LXII,61,Polonium,V,[Ar].3d5,3d-4.3d+,"(0,5/2)<5/2>",3d4 5D<0>,6557,12,,,,,,,,,,,
84,Po LXIII,Po,LXIII,62,Polonium,Ti,[Ar].3d4,3d4,5D0,3d3 4F<3/2>,6856,15,,,,,,,,,,,
84,Po LXIV,Po,LXIV,63,Polonium,Sc,[Ar].3d3,3d3,4F<3/2>,3d2 3F<2>,7015,19,,,,,,,,,,,
84,Po LXV,Po,LXV,64,Polonium,Ca,[Ar].3d2,3d2,3F<2>,3d 2D<3/2>,7191,24,,,,,,,,,,,
84,Po LXVI,Po,LXVI,65,Polonium,K,[Ar].3d,3d,2D<3/2>,3p6 1S<0>,7350,30,,,,,,,,,,,
84,Po LXVII,Po,LXVII,66,Polonium,Ar,[Ne].3s2.3p6,3p6,1S0,3p5 2P*<3/2>,7810,40,,,,,,,,,,,
84,Po LXVIII,Po,LXVIII,67,Polonium,Cl,[Ne].3s2.3p5,3p5,2P*<3/2>,3p4 3P<2>,7950,40,,,,,,,,,,,
84,Po LXIX,Po,LXIX,68,Polonium,S,[Ne].3s2.3p4,3p4,3P<2>,3p3 2P*<3/2>,8100,50,,,,,,,,,,,
84,Po LXX,Po,LXX,69,Polonium,P,[Ne].3s2.3p3,3p3,2P*<3/2>,3p2 3P<0>,8240,50,,,,,,,,,,,
84,Po LXXI,Po,LXXI,70,Polonium,Si,[Ne].3s2.3p2,3p2,3P0,3p 2P*<1/2>,9050,60,,,,,,,,,,,
84,Po LXXII,Po,LXXII,71,Polonium,Al,[Ne].3s2.3p,3p,2P*<1/2>,3s2 1S<0>,9220,60,,,,,,,,,,,
84,Po LXXIII,Po,LXXIII,72,Polonium,Mg,[Ne].3s2,3s2,1S0,3s 2S<1/2>,9550,70,,,,,,,,,,,
84,Po LXXIV,Po,LXXIV,73,Polonium,Na,[Ne].3s,3s,2S<1/2>,2p6 1S<0>,9710,90,,,,,,,,,,,
84,Po LXXV,Po,LXXV,74,Polonium,Ne,1s2.2s2.2p6,2p6,1S0,2p5 2P*<3/2>,20670,90,,,,,,,,,,,
84,Po LXXVI,Po,LXXVI,75,Polonium,F,1s2.2s2.2p5,2p5,2P*<3/2>,2p4 3P<2>,21050,100,,,,,,,,,,,
84,Po LXXVII,Po,LXXVII,76,Polonium,O,1s2.2s2.2p4,2p4,3P<2>,"2p2<1/2>.2p<3/2> (0,3/2)*<3/2>",21470,110,,,,,,,,,,,
84,Po LXXVIII,Po,LXXVIII,77,Polonium,N,1s2.2s2.2p3,2p2<1/2>.2p<3/2>,"(0,3/2)*<3/2>",2p2 3P<0>,21860,120,,,,,,,,,,,
84,Po LXXIX,Po,LXXIX,78,Polonium,C,1s2.2s2.2p2,2p2,3P0,2p 2P*<1/2>,24860,120,,,,,,,,,,,
84,Po LXXX,Po,LXXX,79,Polonium,B,1s2.2s2.2p,2p,2P*<1/2>,2s2 1S<0>,25360,140,,,,,,,,,,,
84,Po LXXXI,Po,LXXXI,80,Polonium,Be,1s2.2s2,2s2,1S0,2s 2S<1/2>,25990,150,,,,,,,,,,,
84,Po LXXXII,Po,LXXXII,81,Polonium,Li,1s2.2s,1s2.2s,2S<1/2>,1s2 1S<0>,26390.4,0.4,,,,,,,,,,,
84,Po LXXXIII,Po,LXXXIII,82,Polonium,He,1s2,1s2,1S0,1s 2S<1/2>,105064.3,0.4,,,,,,,,,,,
84,Po LXXXIV,Po,LXXXIV,83,Polonium,H,1s,1s,2S<1/2>,,106983.4,0.5,,,,,,,,,,,
85,At I,At,I,0,Astatine,At,[Hg].6p5,6p5,2P*<3/2>,6p4 3P<2>,9.31751,0.00008,,,,,,,,,,,
85,At II,At,II,1,Astatine,Po,[Hg].6p4,6p4,3P<2>,6p3 4S*<3/2>,17.88,0.02,,,,,,,,,,,
85,At III,At,III,2,Astatine,Bi,[Hg].6p3,6p3,4S*<3/2>,6p2 3P<0>,26.58,0.05,,,,,,,,,,,
85,At IV,At,IV,3,Astatine,Pb,[Hg].6p2,6p2,3P0,6p 2P*<1/2>,39.65,,,,,,,,,,,,
85,At V,At,V,4,Astatine,Tl,[Hg].6p,6p,2P*<1/2>,6s2 1S<0>,50.39,,,,,,,,,,,,
85,At VI,At,VI,5,Astatine,Hg,[Xe].4f14.5d10.6s2,6s2,1S0,6s 2S<1/2>,72,2,,,,,,,,,,,
85,At VII,At,VII,6,Astatine,Au,[Xe].4f14.5d10.6s,6s,2S<1/2>,5d10 1S<0>,85.1,2,,,,,,,,,,,
85,At VIII,At,VIII,7,Astatine,Pt,[Xe].4f14.5d10,5d10,1S0,5d9 2D<5/2>,130.1,2.1,,,,,,,,,,,
85,At IX,At,IX,8,Astatine,Ir,[Xe].4f14.5d9,5d9,2D<5/2>,5d8 3F<4>,149,2.2,,,,,,,,,,,
85,At X,At,X,9,Astatine,Os,[Xe].4f14.5d8,5d8,3F<4>,5d7 4F<9/2>,169,2.2,,,,,,,,,,,
85,At XI,At,XI,10,Astatine,Re,[Xe].4f14.5d7,5d7,4F<9/2>,5d6 5D<4>,192.1,2.4,,,,,,,,,,,
85,At XII,At,XII,11,Astatine,W,[Xe].4f14.5d6,5d6,5D<4>,5d5 6S<5/2>,212,2.5,,,,,,,,,,,
85,At XIII,At,XIII,12,Astatine,Ta,[Xe].4f14.5d5,5d5,6S<5/2>,5d4 5D<0>,236,3,,,,,,,,,,,
85,At XIV,At,XIV,13,Astatine,Hf,[Xe].4f14.5d4,5d4,5D0,5d3 4F<3/2>,263,3,,,,,,,,,,,
85,At XV,At,XV,14,Astatine,Lu,[Xe].4f14.5d3,5d3,4F<3/2>,5d2 3F<2>,287,3,,,,,,,,,,,
85,At XVI,At,XVI,15,Astatine,Yb,[Xe].4f14.5d2,5d2,3F<2>,5d 2D<3/2>,311,3,,,,,,,,,,,
85,At XVII,At,XVII,16,Astatine,Tm,[Xe].4f14.5d,5d,2D<3/2>,4f14 1S<0>,335,3,,,,,,,,,,,
85,At XVIII,At,XVIII,17,Astatine,Er,[Xe].4f14,4f14,1S0,4f14.5p5 2P*<3/2>,452,22,,,,,,,,,,,
85,At XIX,At,XIX,18,Astatine,Ho,[Cd].4f14.5p5,4f14.5p5,2P*<3/2>,4f14.5p4 3P<2>,481,24,,,,,,,,,,,
85,At XX,At,XX,19,Astatine,Dy,[Cd].4f14.5p4,4f14.5p4,3P<2>,4f14.5p3 2P*<3/2>,510,30,,,,,,,,,,,
85,At XXI,At,XXI,20,Astatine,Tb,[Cd].4f14.5p3,4f14.5p3,2P*<3/2>,4f14.5p2 3P<0>,540,30,,,,,,,,,,,
85,At XXII,At,XXII,21,Astatine,Gd,[Cd].4f14.5p2,4f14.5p2,3P0,4f14.5p 2P*<1/2>,600,30,,,,,,,,,,,
85,At XXIII,At,XXIII,22,Astatine,Eu,[Cd].4f14.5p,4f14.5p,2P*<1/2>,4f14 1S<0>,630,30,,,,,,,,,,,
85,At XXIV,At,XXIV,23,Astatine,Sm,[Cd].4f14,4f14,1S0,4f14.5s 2S<1/2>,720,40,,,,,,,,,,,
85,At XXV,At,XXV,24,Astatine,Pm,[Kr].4d10.4f14.5s,4f14.5s,2S<1/2>,4f14 1S<0>,750,40,,,,,,,,,,,
85,At XXVI,At,XXVI,25,Astatine,Nd,[Kr].4d10.4f14,4f14,1S0,4f13 2F*<7/2>,790,40,,,,,,,,,,,
85,At XXVII,At,XXVII,26,Astatine,Pr,[Kr].4d10.4f13,4f13,2F*<7/2>,4f12,860,40,,,,,,,,,,,
85,At XXVIII,At,XXVIII,27,Astatine,Ce,[Kr].4d10.4f12,4f12,,4f11 4I*<15/2>,920,50,,,,,,,,,,,
85,At XXIX,At,XXIX,28,Astatine,La,[Kr].4d10.4f11,4f11,4I*<15/2>,4f10 5I<8>,990,50,,,,,,,,,,,
85,At XXX,At,XXX,29,Astatine,Ba,[Kr].4d10.4f10,4f10,5I<8>,4f9 6H*<15/2>,1050,50,,,,,,,,,,,
85,At XXXI,At,XXXI,30,Astatine,Cs,[Kr].4d10.4f9,4f9,6H*<15/2>,4f8 7F<6>,1120,60,,,,,,,,,,,
85,At XXXII,At,XXXII,31,Astatine,Xe,[Kr].4d10.4f8,4f8,7F<6>,4f7 8S*<7/2>,1180,60,,,,,,,,,,,
85,At XXXIII,At,XXXIII,32,Astatine,I,[Kr].4d10.4f7,4f7,8S*<7/2>,4f6 7F<0>,1250,60,,,,,,,,,,,
85,At XXXIV,At,XXXIV,33,Astatine,Te,[Kr].4d10.4f6,4f6,7F0,4f5 6H*<5/2>,1320,70,,,,,,,,,,,
85,At XXXV,At,XXXV,34,Astatine,Sb,[Kr].4d10.4f5,4f5,6H*<5/2>,4f4 5I<4>,1380,70,,,,,,,,,,,
85,At XXXVI,At,XXXVI,35,Astatine,Sn,[Kr].4d10.4f4,4f4,5I<4>,4f3 4I*<9/2>,1450,70,,,,,,,,,,,
85,At XXXVII,At,XXXVII,36,Astatine,In,[Kr].4d10.4f3,4f3,4I*<9/2>,4f2 3H<4>,1510,70,,,,,,,,,,,
85,At XXXVIII,At,XXXVIII,37,Astatine,Cd,[Kr].4d10.4f2,4f2,3H<4>,4f 2F*<5/2>,1590,70,,,,,,,,,,,
85,At XXXIX,At,XXXIX,38,Astatine,Ag,[Kr].4d10.4f,4f,2F*<5/2>,4d10 1S<0>,1650,90,,,,,,,,,,,
85,At XL,At,XL,39,Astatine,Pd,[Kr].4d10,4d10,1S0,4d9 2D<5/2>,1948,4,,,,,,,,,,,
85,At XLI,At,XLI,40,Astatine,Rh,[Kr].4d9,4d9,2D<5/2>,4d8 3F<4>,2007,4,,,,,,,,,,,
85,At XLII,At,XLII,41,Astatine,Ru,[Kr].4d8,4d8,3F<4>,4d7 4F<9/2>,2071,4,,,,,,,,,,,
85,At XLIII,At,XLIII,42,Astatine,Tc,[Kr].4d7,4d7,4F<9/2>,4d6 5D<4>,2139,4,,,,,,,,,,,
85,At XLIV,At,XLIV,43,Astatine,Mo,[Kr].4d6,4d6,5D<4>,"4d-4.4d+ (0,5/2)<5/2>",2203,4,,,,,,,,,,,
85,At XLV,At,XLV,44,Astatine,Nb,[Kr].4d5,4d-4.4d+,"(0,5/2)<5/2>",4d4 5D<0>,2266,4,,,,,,,,,,,
85,At XLVI,At,XLVI,45,Astatine,Zr,[Kr].4d4,4d4,5D0,4d3 4F<3/2>,2373,4,,,,,,,,,,,
85,At XLVII,At,XLVII,46,Astatine,Y,[Kr].4d3,4d3,4F<3/2>,4d2 3F<2>,2439,4,,,,,,,,,,,
85,At XLVIII,At,XLVIII,47,Astatine,Sr,[Kr].4d2,4d2,3F<2>,4d 2D<3/2>,2510,4,,,,,,,,,,,
85,At XLIX,At,XLIX,48,Astatine,Rb,[Kr].4d,4d,2D<3/2>,4p6 1S<0>,2576,4,,,,,,,,,,,
85,At L,At,L,49,Astatine,Kr,[Ar].3d10.4s2.4p6,4p6,1S0,4p5 2P*<3/2>,2841,4,,,,,,,,,,,
85,At LI,At,LI,50,Astatine,Br,[Ar].3d10.4s2.4p5,4p5,2P*<3/2>,4p4 3P<2>,2905,4,,,,,,,,,,,
85,At LII,At,LII,51,Astatine,Se,[Ar].3d10.4s2.4p4,4p4,3P<2>,"4p-2.4p+ (0,3/2)*<3/2>",2977,4,,,,,,,,,,,
85,At LIII,At,LIII,52,Astatine,As,[Ar].3d10.4s2.4p3,4p-2.4p+,"(0,3/2)*<3/2>",4p2 3P<0>,3042,4,,,,,,,,,,,
85,At LIV,At,LIV,53,Astatine,Ge,[Ar].3d10.4s2.4p2,4p2,3P0,4p 2P*<1/2>,3312,5,,,,,,,,,,,
85,At LV,At,LV,54,Astatine,Ga,[Ar].3d10.4s2.4p,4p,2P*<1/2>,4s2 1S<0>,3388,5,,,,,,,,,,,
85,At LVI,At,LVI,55,Astatine,Zn,[Ar].3d10.4s2,4s2,1S0,4s 2S<1/2>,3573,5,,,,,,,,,,,
85,At LVII,At,LVII,56,Astatine,Cu,[Ar].3d10.4s,4s,2S<1/2>,3d10 1S<0>,3649,3,,,,,,,,,,,
85,At LVIII,At,LVIII,57,Astatine,Ni,[Ar].3d10,3d10,1S0,3d9 2D<5/2>,5976,6,,,,,,,,,,,
85,At LIX,At,LIX,58,Astatine,Co,[Ar].3d9,3d9,2D<5/2>,3d8 3F<4>,6122,6,,,,,,,,,,,
85,At LX,At,LX,59,Astatine,Fe,[Ar].3d8,3d8,3F<4>,3d7 4F<9/2>,6279,7,,,,,,,,,,,
85,At LXI,At,LXI,60,Astatine,Mn,[Ar].3d7,3d7,4F<9/2>,"3d-4.3d+2 (0,4)<4>",6445,10,,,,,,,,,,,
85,At LXII,At,LXII,61,Astatine,Cr,[Ar].3d6,3d-4.3d+2,"(0,4)<4>","3d-4.3d+ (0,5/2)<5/2>",6604,12,,,,,,,,,,,
85,At LXIII,At,LXIII,62,Astatine,V,[Ar].3d5,3d-4.3d+,"(0,5/2)<5/2>",3d4 5D<0>,6759,15,,,,,,,,,,,
85,At LXIV,At,LXIV,63,Astatine,Ti,[Ar].3d4,3d4,5D0,3d3 4F<3/2>,7068,19,,,,,,,,,,,
85,At LXV,At,LXV,64,Astatine,Sc,[Ar].3d3,3d3,4F<3/2>,3d2 3F<2>,7230,24,,,,,,,,,,,
85,At LXVI,At,LXVI,65,Astatine,Ca,[Ar].3d2,3d2,3F<2>,3d 2D<3/2>,7410,30,,,,,,,,,,,
85,At LXVII,At,LXVII,66,Astatine,K,[Ar].3d,3d,2D<3/2>,3p6 1S<0>,7570,40,,,,,,,,,,,
85,At LXVIII,At,LXVIII,67,Astatine,Ar,[Ne].3s2.3p6,3p6,1S0,3p5 2P*<3/2>,8030,40,,,,,,,,,,,
85,At LXIX,At,LXIX,68,Astatine,Cl,[Ne].3s2.3p5,3p5,2P*<3/2>,3p4 3P<2>,8180,50,,,,,,,,,,,
85,At LXX,At,LXX,69,Astatine,S,[Ne].3s2.3p4,3p4,3P<2>,3p3 2P*<3/2>,8330,50,,,,,,,,,,,
85,At LXXI,At,LXXI,70,Astatine,P,[Ne].3s2.3p3,3p3,2P*<3/2>,3p2 3P<0>,8480,60,,,,,,,,,,,
85,At LXXII,At,LXXII,71,Astatine,Si,[Ne].3s2.3p2,3p2,3P0,3p 2P*<1/2>,9330,60,,,,,,,,,,,