At. num,Sp. Name,Element,Valence,Ion Charge,El. Name,Isoel. Seq.,Ground Shells (a),Ground Config.,Ground Level,Ionized Level,Ionization Energy (b) (eV),Uncertainty (c) (eV),,,,,,,,,,,
98,Cf VI,Cf,VI,5,Californium,Np,[Rn].5f7,5f7,8S*<7/2>,5f6 7F<0>,75,2,,,,,,,,,,,
98,Cf VII,Cf,VII,6,Californium,U,[Rn].5f6,5f6,7F0,5f5 6H*<5/2>,91,2,,,,,,,,,,,
98,Cf VIII,Cf,VIII,7,Californium,Pa,[Rn].5f5,5f5,6H*<5/2>,5f4 5I<4>,112.9,2.1,,,,,,,,,,,
98,Cf IX,Cf,IX,8,Californium,Th,[Rn].5f4,5f4,5I<4>,5f7.6p2,133,6,,,,,,,,,,,
98,Cf X,Cf,X,9,Californium,Ac,[Hg].5f7.6p2,5f7.6p2,*,5f6.6p2,152,7,,,,,,,,,,,
98,Cf XI,Cf,XI,10,Californium,Ra,[Hg].5f6.6p2,5f6.6p2,,5f5.6p2*,178,9,,,,,,,,,,,
98,Cf XII,Cf,XII,11,Californium,Fr,[Hg].5f5.6p2,5f5.6p2,*,5f4.6p2,201,10,,,,,,,,,,,
98,Cf XIII,Cf,XIII,12,Californium,Rn,[Hg].5f4.6p2,5f4.6p2,,5f3.6p2*,225,11,,,,,,,,,,,
98,Cf XIV,Cf,XIV,13,Californium,At,[Hg].5f3.6p2,5f3.6p2,*,5f3.6p,247,12,,,,,,,,,,,
98,Cf XV,Cf,XV,14,Californium,Po,[Hg].5f3.6p,5f3.6p,,5f3*,265,14,,,,,,,,,,,
98,Cf XVI,Cf,XVI,15,Californium,Bi,[Hg].5f3,5f3,*,5f2,286,15,,,,,,,,,,,
98,Cf XVII,Cf,XVII,16,Californium,Pb,[Hg].5f2,5f2,,5f 2F*<5/2>,310,15,,,,,,,,,,,
98,Cf XVIII,Cf,XVIII,17,Californium,Tl,[Hg].5f,5f,2F*<5/2>,6s2 1S<0>,334,16,,,,,,,,,,,
98,Cf XIX,Cf,XIX,18,Californium,Hg,[Xe].4f14.5d10.6s2,6s2,1S0,6s 2S<1/2>,368,3,,,,,,,,,,,
98,Cf XX,Cf,XX,19,Californium,Au,[Xe].4f14.5d10.6s,6s,2S<1/2>,5d10 1S<0>,390,4,,,,,,,,,,,
98,Cf XXI,Cf,XXI,20,Californium,Pt,[Xe].4f14.5d10,5d10,1S0,5d9 2D<5/2>,536,4,,,,,,,,,,,
98,Cf XXII,Cf,XXII,21,Californium,Ir,[Xe].4f14.5d9,5d9,2D<5/2>,5d8 3F<4>,566,4,,,,,,,,,,,
98,Cf XXIII,Cf,XXIII,22,Californium,Os,[Xe].4f14.5d8,5d8,3F<4>,5d7 4F<9/2>,597,4,,,,,,,,,,,
98,Cf XXIV,Cf,XXIV,23,Californium,Re,[Xe].4f14.5d7,5d7,4F<9/2>,5d6 5D<4>,630,4,,,,,,,,,,,
98,Cf XXV,Cf,XXV,24,Californium,W,[Xe].4f14.5d6,5d6,5D<4>,5d5 6S<5/2>,662,4,,,,,,,,,,,
98,Cf XXVI,Cf,XXVI,25,Californium,Ta,[Xe].4f14.5d5,5d5,6S<5/2>,5d4 5D<0>,695,4,,,,,,,,,,,
98,Cf XXVII,Cf,XXVII,26,Californium,Hf,[Xe].4f14.5d4,5d4,5D0,5d3 4F<3/2>,744,4,,,,,,,,,,,
98,Cf XXVIII,Cf,XXVIII,27,Californium,Lu,[Xe].4f14.5d3,5d3,4F<3/2>,5d2 3F<2>,778,4,,,,,,,,,,,
98,Cf XXIX,Cf,XXIX,28,Californium,Yb,[Xe].4f14.5d2,5d2,3F<2>,5d 2D<3/2>,814,4,,,,,,,,,,,
98,Cf XXX,Cf,XXX,29,Californium,Tm,[Xe].4f14.5d,5d,2D<3/2>,4f14 1S<0>,847,4,,,,,,,,,,,
98,Cf XXXI,Cf,XXXI,30,Californium,Er,[Xe].4f14,4f14,1S0,4f14.5p5 2P*<3/2>,1010,50,,,,,,,,,,,
98,Cf XXXII,Cf,XXXII,31,Californium,Ho,[Cd].4f14.5p5,4f14.5p5,2P*<3/2>,4f14.5p4 3P<2>,1050,50,,,,,,,,,,,
98,Cf XXXIII,Cf,XXXIII,32,Californium,Dy,[Cd].4f14.5p4,4f14.5p4,3P<2>,4f14.5p3 2P*<3/2>,1090,50,,,,,,,,,,,
98,Cf XXXIV,Cf,XXXIV,33,Californium,Tb,[Cd].4f14.5p3,4f14.5p3,2P*<3/2>,4f14.5p2 3P<0>,1120,60,,,,,,,,,,,
98,Cf XXXV,Cf,XXXV,34,Californium,Gd,[Cd].4f14.5p2,4f14.5p2,3P0,4f14.5p 2P*<1/2>,1250,60,,,,,,,,,,,
98,Cf XXXVI,Cf,XXXVI,35,Californium,Eu,[Cd].4f14.5p,4f14.5p,2P*<1/2>,4f14 1S<0>,1300,60,,,,,,,,,,,
98,Cf XXXVII,Cf,XXXVII,36,Californium,Sm,[Cd].4f14,4f14,1S0,4f14.5s 2S<1/2>,1420,70,,,,,,,,,,,
98,Cf XXXVIII,Cf,XXXVIII,37,Californium,Pm,[Kr].4d10.4f14.5s,4f14.5s,2S<1/2>,4f14 1S<0>,1470,70,,,,,,,,,,,
98,Cf XXXIX,Cf,XXXIX,38,Californium,Nd,[Kr].4d10.4f14,4f14,1S0,4f13 2F*<7/2>,1620,80,,,,,,,,,,,
98,Cf XL,Cf,XL,39,Californium,Pr,[Kr].4d10.4f13,4f13,2F*<7/2>,4f12,1700,90,,,,,,,,,,,
98,Cf XLI,Cf,XLI,40,Californium,Ce,[Kr].4d10.4f12,4f12,,4f11 4I*<15/2>,1790,90,,,,,,,,,,,
98,Cf XLII,Cf,XLII,41,Californium,La,[Kr].4d10.4f11,4f11,4I*<15/2>,4f10 5I<8>,1880,100,,,,,,,,,,,
98,Cf XLIII,Cf,XLIII,42,Californium,Ba,[Kr].4d10.4f10,4f10,5I<8>,4f9 6H*<15/2>,1960,100,,,,,,,,,,,
98,Cf XLIV,Cf,XLIV,43,Californium,Cs,[Kr].4d10.4f9,4f9,6H*<15/2>,4f8 7F<6>,2050,100,,,,,,,,,,,
98,Cf XLV,Cf,XLV,44,Californium,Xe,[Kr].4d10.4f8,4f8,7F<6>,4f7 8S*<7/2>,2130,110,,,,,,,,,,,
98,Cf XLVI,Cf,XLVI,45,Californium,I,[Kr].4d10.4f7,4f7,8S*<7/2>,4f6 7F<0>,2220,110,,,,,,,,,,,
98,Cf XLVII,Cf,XLVII,46,Californium,Te,[Kr].4d10.4f6,4f6,7F0,4f5 6H*<5/2>,2320,120,,,,,,,,,,,
98,Cf XLVIII,Cf,XLVIII,47,Californium,Sb,[Kr].4d10.4f5,4f5,6H*<5/2>,4f4 5I<4>,2410,120,,,,,,,,,,,
98,Cf XLIX,Cf,XLIX,48,Californium,Sn,[Kr].4d10.4f4,4f4,5I<4>,4f3 4I*<9/2>,2490,120,,,,,,,,,,,
98,Cf L,Cf,L,49,Californium,In,[Kr].4d10.4f3,4f3,4I*<9/2>,4f2 3H<4>,2580,120,,,,,,,,,,,
98,Cf LI,Cf,LI,50,Californium,Cd,[Kr].4d10.4f2,4f2,3H<4>,4f 2F*<5/2>,2670,140,,,,,,,,,,,
98,Cf LII,Cf,LII,51,Californium,Ag,[Kr].4d10.4f,4f,2F*<5/2>,4d10 1S<0>,2750,140,,,,,,,,,,,
98,Cf LIII,Cf,LIII,52,Californium,Pd,[Kr].4d10,4d10,1S0,4d9 2D<5/2>,3186,4,,,,,,,,,,,
98,Cf LIV,Cf,LIV,53,Californium,Rh,[Kr].4d9,4d9,2D<5/2>,4d8 3F<4>,3261,5,,,,,,,,,,,
98,Cf LV,Cf,LV,54,Californium,Ru,[Kr].4d8,4d8,3F<4>,4d7 4F<9/2>,3340,5,,,,,,,,,,,
98,Cf LVI,Cf,LVI,55,Californium,Tc,[Kr].4d7,4d7,4F<9/2>,4d6 5D<4>,3424,5,,,,,,,,,,,
98,Cf LVII,Cf,LVII,56,Californium,Mo,[Kr].4d6,4d6,5D<4>,"4d-4.4d+ (0,5/2)<5/2>",3503,5,,,,,,,,,,,
98,Cf LVIII,Cf,LVIII,57,Californium,Nb,[Kr].4d5,4d-4.4d+,"(0,5/2)<5/2>",4d4 5D<0>,3581,6,,,,,,,,,,,
98,Cf LIX,Cf,LIX,58,Californium,Zr,[Kr].4d4,4d4,5D0,4d3 4F<3/2>,3747,6,,,,,,,,,,,
98,Cf LX,Cf,LX,59,Californium,Y,[Kr].4d3,4d3,4F<3/2>,4d2 3F<2>,3828,7,,,,,,,,,,,
98,Cf LXI,Cf,LXI,60,Californium,Sr,[Kr].4d2,4d2,3F<2>,4d 2D<3/2>,3915,10,,,,,,,,,,,
98,Cf LXII,Cf,LXII,61,Californium,Rb,[Kr].4d,4d,2D<3/2>,4p6 1S<0>,3998,12,,,,,,,,,,,
98,Cf LXIII,Cf,LXIII,62,Californium,Kr,[Ar].3d10.4s2.4p6,4p6,1S0,4p5 2P*<3/2>,4329,15,,,,,,,,,,,
98,Cf LXIV,Cf,LXIV,63,Californium,Br,[Ar].3d10.4s2.4p5,4p5,2P*<3/2>,4p4 3P<2>,4407,19,,,,,,,,,,,
98,Cf LXV,Cf,LXV,64,Californium,Se,[Ar].3d10.4s2.4p4,4p4,3P<2>,"4p-2.4p+ (0,3/2)*<3/2>",4494,24,,,,,,,,,,,
98,Cf LXVI,Cf,LXVI,65,Californium,As,[Ar].3d10.4s2.4p3,4p-2.4p+,"(0,3/2)*<3/2>",4p2 3P<0>,4570,30,,,,,,,,,,,
98,Cf LXVII,Cf,LXVII,66,Californium,Ge,[Ar].3d10.4s2.4p2,4p2,3P0,4p 2P*<1/2>,5100,40,,,,,,,,,,,
98,Cf LXVIII,Cf,LXVIII,67,Californium,Ga,[Ar].3d10.4s2.4p,4p,2P*<1/2>,4s2 1S<0>,5190,40,,,,,,,,,,,
98,Cf LXIX,Cf,LXIX,68,Californium,Zn,[Ar].3d10.4s2,4s2,1S0,4s 2S<1/2>,5430,50,,,,,,,,,,,
98,Cf LXX,Cf,LXX,69,Californium,Cu,[Ar].3d10.4s,4s,2S<1/2>,3d10 1S<0>,5520,50,,,,,,,,,,,
98,Cf LXXI,Cf,LXXI,70,Californium,Ni,[Ar].3d10,3d10,1S0,3d9 2D<5/2>,8730,60,,,,,,,,,,,
98,Cf LXXII,Cf,LXXII,71,Californium,Co,[Ar].3d9,3d9,2D<5/2>,3d8 3F<4>,8900,60,,,,,,,,,,,
98,Cf LXXIII,Cf,LXXIII,72,Californium,Fe,[Ar].3d8,3d8,3F<4>,3d7 4F<9/2>,9090,70,,,,,,,,,,,
98,Cf LXXIV,Cf,LXXIV,73,Californium,Mn,[Ar].3d7,3d7,4F<9/2>,"3d-4.3d+2 (0,4)<4>",9290,90,,,,,,,,,,,
98,Cf LXXV,Cf,LXXV,74,Californium,Cr,[Ar].3d6,3d-4.3d+2,"(0,4)<4>","3d-4.3d+ (0,5/2)<5/2>",9480,90,,,,,,,,,,,
98,Cf LXXVI,Cf,LXXVI,75,Californium,V,[Ar].3d5,3d-4.3d+,"(0,5/2)<5/2>",3d4 5D<0>,9660,100,,,,,,,,,,,
98,Cf LXXVII,Cf,LXXVII,76,Californium,Ti,[Ar].3d4,3d4,5D0,3d3 4F<3/2>,10140,110,,,,,,,,,,,
98,Cf LXXVIII,Cf,LXXVIII,77,Californium,Sc,[Ar].3d3,3d3,4F<3/2>,3d2 3F<2>,10330,120,,,,,,,,,,,
98,Cf LXXIX,Cf,LXXIX,78,Californium,Ca,[Ar].3d2,3d2,3F<2>,3d 2D<3/2>,10550,120,,,,,,,,,,,
98,Cf LXXX,Cf,LXXX,79,Californium,K,[Ar].3d,3d,2D<3/2>,3p6 1S<0>,10740,140,,,,,,,,,,,
98,Cf LXXXI,Cf,LXXXI,80,Californium,Ar,[Ne].3s2.3p6,3p6,1S0,3p5 2P*<3/2>,11300,150,,,,,,,,,,,
98,Cf LXXXII,Cf,LXXXII,81,Californium,Cl,[Ne].3s2.3p5,3p5,2P*<3/2>,3p4 3P<2>,11470,160,,,,,,,,,,,
98,Cf LXXXIII,Cf,LXXXIII,82,Californium,S,[Ne].3s2.3p4,3p4,3P<2>,3p3 2P*<3/2>,11650,170,,,,,,,,,,,
98,Cf LXXXIV,Cf,LXXXIV,83,Californium,P,[Ne].3s2.3p3,3p3,2P*<3/2>,3p2 3P<0>,11820,190,,,,,,,,,,,
98,Cf LXXXV,Cf,LXXXV,84,Californium,Si,[Ne].3s2.3p2,3p2,3P0,3p 2P*<1/2>,13450,200,,,,,,,,,,,
98,Cf LXXXVI,Cf,LXXXVI,85,Californium,Al,[Ne].3s2.3p,3p,2P*<1/2>,3s2 1S<0>,13660,220,,,,,,,,,,,
98,Cf LXXXVII,Cf,LXXXVII,86,Californium,Mg,[Ne].3s2,3s2,1S0,3s 2S<1/2>,14080,240,,,,,,,,,,,
98,Cf LXXXVIII,Cf,LXXXVIII,87,Californium,Na,[Ne].3s,3s,2S<1/2>,2p6 1S<0>,14280,250,,,,,,,,,,,
98,Cf LXXXIX,Cf,LXXXIX,88,Californium,Ne,1s2.2s2.2p6,2p6,1S0,2p5 2P*<3/2>,29000,300,,,,,,,,,,,
98,Cf XC,Cf,XC,89,Californium,F,1s2.2s2.2p5,2p5,2P*<3/2>,2p4 3P<2>,29500,300,,,,,,,,,,,
98,Cf XCI,Cf,XCI,90,Californium,O,1s2.2s2.2p4,2p4,3P<2>,"2p2<1/2>.2p<3/2> (0,3/2)*<3/2>",30000,300,,,,,,,,,,,
98,Cf XCII,Cf,XCII,91,Californium,N,1s2.2s2.2p3,2p2<1/2>.2p<3/2>,"(0,3/2)*<3/2>",2p2 3P<0>,30500,300,,,,,,,,,,,
98,Cf XCIII,Cf,XCIII,92,Californium,C,1s2.2s2.2p2,2p2,3P0,2p 2P*<1/2>,36500,400,,,,,,,,,,,
98,Cf XCIV,Cf,XCIV,93,Californium,B,1s2.2s2.2p,2p,2P*<1/2>,2s2 1S<0>,37100,400,,,,,,,,,,,
98,Cf XCV,Cf,XCV,94,Californium,Be,1s2.2s2,2s2,1S0,2s 2S<1/2>,37900,400,,,,,,,,,,,
98,Cf XCVI,Cf,XCVI,95,Californium,Li,1s2.2s,1s2.2s,2S<1/2>,1s2 1S<0>,38443.5,1,,,,,,,,,,,
98,Cf XCVII,Cf,XCVII,96,Californium,He,1s2,1s2,1S0,1s 2S<1/2>,150593,5,,,,,,,,,,,
98,Cf XCVIII,Cf,XCVIII,97,Californium,H,1s,1s,2S<1/2>,,153124,5,,,,,,,,,,,
99,Es I,Es,I,0,Einsteinium,Es,[Rn].5f11.7s2,5f11.7s2,4I*<15/2>,5f11.7s 5I*<8>,6.3684,0.00006,,,,,,,,,,,
99,Es II,Es,II,1,Einsteinium,Cf,[Rn].5f11.7s,5f11.7s,5I*<8>,5f11 4I*<15/2>,12.2,0.4,,,,,,,,,,,
99,Es III,Es,III,2,Einsteinium,Bk,[Rn].5f11,5f11,4I*<15/2>,5f10 5I<8>,22.7,0.4,,,,,,,,,,,
99,Es IV,Es,IV,3,Einsteinium,Cm,[Rn].5f10,5f10,5I<8>,5f9 6H*<15/2>,38.8,0.4,,,,,,,,,,,
99,Es V,Es,V,4,Einsteinium,Am,[Rn].5f9,5f9,6H*<15/2>,5f8 7F<6>,54.1,1.9,,,,,,,,,,,
99,Es VI,Es,VI,5,Einsteinium,Pu,[Rn].5f8,5f8,7F<6>,5f7 8S*<7/2>,71,2,,,,,,,,,,,
99,Es VII,Es,VII,6,Einsteinium,Np,[Rn].5f7,5f7,8S*<7/2>,5f6 7F<0>,97,2,,,,,,,,,,,
99,Es VIII,Es,VIII,7,Einsteinium,U,[Rn].5f6,5f6,7F0,5f5 6H*<5/2>,112.9,2.1,,,,,,,,,,,
99,Es IX,Es,IX,8,Einsteinium,Pa,[Rn].5f5,5f5,6H*<5/2>,5f4 5I<4>,137,2.2,,,,,,,,,,,
99,Es X,Es,X,9,Einsteinium,Th,[Rn].5f4,5f4,5I<4>,5f7.6p2,157,7,,,,,,,,,,,
99,Es XI,Es,XI,10,Einsteinium,Ac,[Hg].5f7.6p2,5f7.6p2,*,5f6.6p2,180,9,,,,,,,,,,,
99,Es XII,Es,XII,11,Einsteinium,Ra,[Hg].5f6.6p2,5f6.6p2,,5f5.6p2*,206,10,,,,,,,,,,,
99,Es XIII,Es,XIII,12,Einsteinium,Fr,[Hg].5f5.6p2,5f5.6p2,*,5f4.6p2,231,11,,,,,,,,,,,
99,Es XIV,Es,XIV,13,Einsteinium,Rn,[Hg].5f4.6p2,5f4.6p2,,5f4.6p*,252,12,,,,,,,,,,,
99,Es XV,Es,XV,14,Einsteinium,At,[Hg].5f4.6p,5f4.6p,*,5f4,270,14,,,,,,,,,,,
99,Es XVI,Es,XVI,15,Einsteinium,Po,[Hg].5f4,5f4,,5f3*,294,15,,,,,,,,,,,
99,Es XVII,Es,XVII,16,Einsteinium,Bi,[Hg].5f3,5f3,*,5f2,317,16,,,,,,,,,,,
99,Es XVIII,Es,XVIII,17,Einsteinium,Pb,[Hg].5f2,5f2,,5f 2F*<5/2>,342,17,,,,,,,,,,,
99,Es XIX,Es,XIX,18,Einsteinium,Tl,[Hg].5f,5f,2F*<5/2>,6s2 1S<0>,367,19,,,,,,,,,,,
99,Es XX,Es,XX,19,Einsteinium,Hg,[Xe].4f14.5d10.6s2,6s2,1S0,6s 2S<1/2>,398,4,,,,,,,,,,,
99,Es XXI,Es,XXI,20,Einsteinium,Au,[Xe].4f14.5d10.6s,6s,2S<1/2>,5d10 1S<0>,421,4,,,,,,,,,,,
99,Es XXII,Es,XXII,21,Einsteinium,Pt,[Xe].4f14.5d10,5d10,1S0,5d9 2D<5/2>,576,4,,,,,,,,,,,
99,Es XXIII,Es,XXIII,22,Einsteinium,Ir,[Xe].4f14.5d9,5d9,2D<5/2>,5d8 3F<4>,606,4,,,,,,,,,,,
99,Es XXIV,Es,XXIV,23,Einsteinium,Os,[Xe].4f14.5d8,5d8,3F<4>,5d7 4F<9/2>,638,4,,,,,,,,,,,
99,Es XXV,Es,XXV,24,Einsteinium,Re,[Xe].4f14.5d7,5d7,4F<9/2>,5d6 5D<4>,672,4,,,,,,,,,,,
99,Es XXVI,Es,XXVI,25,Einsteinium,W,[Xe].4f14.5d6,5d6,5D<4>,5d5 6S<5/2>,705,4,,,,,,,,,,,
99,Es XXVII,Es,XXVII,26,Einsteinium,Ta,[Xe].4f14.5d5,5d5,6S<5/2>,5d4 5D<0>,738,4,,,,,,,,,,,
99,Es XXVIII,Es,XXVIII,27,Einsteinium,Hf,[Xe].4f14.5d4,5d4,5D0,5d3 4F<3/2>,790,4,,,,,,,,,,,
99,Es XXIX,Es,XXIX,28,Einsteinium,Lu,[Xe].4f14.5d3,5d3,4F<3/2>,5d2 3F<2>,824,4,,,,,,,,,,,
99,Es XXX,Es,XXX,29,Einsteinium,Yb,[Xe].4f14.5d2,5d2,3F<2>,5d 2D<3/2>,861,4,,,,,,,,,,,
99,Es XXXI,Es,XXXI,30,Einsteinium,Tm,[Xe].4f14.5d,5d,2D<3/2>,4f14 1S<0>,895,4,,,,,,,,,,,
99,Es XXXII,Es,XXXII,31,Einsteinium,Er,[Xe].4f14,4f14,1S0,4f14.5p5 2P*<3/2>,1060,50,,,,,,,,,,,
99,Es XXXIII,Es,XXXIII,32,Einsteinium,Ho,[Cd].4f14.5p5,4f14.5p5,2P*<3/2>,4f14.5p4 3P<2>,1100,50,,,,,,,,,,,
99,Es XXXIV,Es,XXXIV,33,Einsteinium,Dy,[Cd].4f14.5p4,4f14.5p4,3P<2>,4f14.5p3 2P*<3/2>,1140,60,,,,,,,,,,,
99,Es XXXV,Es,XXXV,34,Einsteinium,Tb,[Cd].4f14.5p3,4f14.5p3,2P*<3/2>,4f14.5p2 3P<0>,1180,60,,,,,,,,,,,
99,Es XXXVI,Es,XXXVI,35,Einsteinium,Gd,[Cd].4f14.5p2,4f14.5p2,3P0,4f14.5p 2P*<1/2>,1310,70,,,,,,,,,,,
99,Es XXXVII,Es,XXXVII,36,Einsteinium,Eu,[Cd].4f14.5p,4f14.5p,2P*<1/2>,4f14 1S<0>,1360,70,,,,,,,,,,,
99,Es XXXVIII,Es,XXXVIII,37,Einsteinium,Sm,[Cd].4f14,4f14,1S0,4f14.5s 2S<1/2>,1480,70,,,,,,,,,,,
99,Es XXXIX,Es,XXXIX,38,Einsteinium,Pm,[Kr].4d10.4f14.5s,4f14.5s,2S<1/2>,4f14 1S<0>,1530,80,,,,,,,,,,,
99,Es XL,Es,XL,39,Einsteinium,Nd,[Kr].4d10.4f14,4f14,1S0,4f13 2F*<7/2>,1690,80,,,,,,,,,,,
99,Es XLI,Es,XLI,40,Einsteinium,Pr,[Kr].4d10.4f13,4f13,2F*<7/2>,4f12,1780,90,,,,,,,,,,,
99,Es XLII,Es,XLII,41,Einsteinium,Ce,[Kr].4d10.4f12,4f12,,4f11 4I*<15/2>,1870,90,,,,,,,,,,,
99,Es XLIII,Es,XLIII,42,Einsteinium,La,[Kr].4d10.4f11,4f11,4I*<15/2>,4f10 5I<8>,1950,100,,,,,,,,,,,
99,Es XLIV,Es,XLIV,43,Einsteinium,Ba,[Kr].4d10.4f10,4f10,5I<8>,4f9 6H*<15/2>,2040,100,,,,,,,,,,,
99,Es XLV,Es,XLV,44,Einsteinium,Cs,[Kr].4d10.4f9,4f9,6H*<15/2>,4f8 7F<6>,2130,110,,,,,,,,,,,
99,Es XLVI,Es,XLVI,45,Einsteinium,Xe,[Kr].4d10.4f8,4f8,7F<6>,4f7 8S*<7/2>,2220,110,,,,,,,,,,,
99,Es XLVII,Es,XLVII,46,Einsteinium,I,[Kr].4d10.4f7,4f7,8S*<7/2>,4f6 7F<0>,2300,120,,,,,,,,,,,
99,Es XLVIII,Es,XLVIII,47,Einsteinium,Te,[Kr].4d10.4f6,4f6,7F0,4f5 6H*<5/2>,2410,120,,,,,,,,,,,
99,Es XLIX,Es,XLIX,48,Einsteinium,Sb,[Kr].4d10.4f5,4f5,6H*<5/2>,4f4 5I<4>,2490,120,,,,,,,,,,,
99,Es L,Es,L,49,Einsteinium,Sn,[Kr].4d10.4f4,4f4,5I<4>,4f3 4I*<9/2>,2580,120,,,,,,,,,,,
99,Es LI,Es,LI,50,Einsteinium,In,[Kr].4d10.4f3,4f3,4I*<9/2>,4f2 3H<4>,2680,140,,,,,,,,,,,
99,Es LII,Es,LII,51,Einsteinium,Cd,[Kr].4d10.4f2,4f2,3H<4>,4f 2F*<5/2>,2760,140,,,,,,,,,,,
99,Es LIII,Es,LIII,52,Einsteinium,Ag,[Kr].4d10.4f,4f,2F*<5/2>,4d10 1S<0>,2850,140,,,,,,,,,,,
99,Es LIV,Es,LIV,53,Einsteinium,Pd,[Kr].4d10,4d10,1S0,4d9 2D<5/2>,3294,5,,,,,,,,,,,
99,Es LV,Es,LV,54,Einsteinium,Rh,[Kr].4d9,4d9,2D<5/2>,4d8 3F<4>,3370,5,,,,,,,,,,,
99,Es LVI,Es,LVI,55,Einsteinium,Ru,[Kr].4d8,4d8,3F<4>,4d7 4F<9/2>,3449,5,,,,,,,,,,,
99,Es LVII,Es,LVII,56,Einsteinium,Tc,[Kr].4d7,4d7,4F<9/2>,4d6 5D<4>,3535,5,,,,,,,,,,,
99,Es LVIII,Es,LVIII,57,Einsteinium,Mo,[Kr].4d6,4d6,5D<4>,"4d-4.4d+ (0,5/2)<5/2>",3616,6,,,,,,,,,,,
99,Es LIX,Es,LIX,58,Einsteinium,Nb,[Kr].4d5,4d-4.4d+,"(0,5/2)<5/2>",4d4 5D<0>,3694,6,,,,,,,,,,,
99,Es LX,Es,LX,59,Einsteinium,Zr,[Kr].4d4,4d4,5D0,4d3 4F<3/2>,3866,7,,,,,,,,,,,
99,Es LXI,Es,LXI,60,Einsteinium,Y,[Kr].4d3,4d3,4F<3/2>,4d2 3F<2>,3947,10,,,,,,,,,,,
99,Es LXII,Es,LXII,61,Einsteinium,Sr,[Kr].4d2,4d2,3F<2>,4d 2D<3/2>,4038,12,,,,,,,,,,,
99,Es LXIII,Es,LXIII,62,Einsteinium,Rb,[Kr].4d,4d,2D<3/2>,4p6 1S<0>,4120,15,,,,,,,,,,,
99,Es LXIV,Es,LXIV,63,Einsteinium,Kr,[Ar].3d10.4s2.4p6,4p6,1S0,4p5 2P*<3/2>,4456,19,,,,,,,,,,,
99,Es LXV,Es,LXV,64,Einsteinium,Br,[Ar].3d10.4s2.4p5,4p5,2P*<3/2>,4p4 3P<2>,4537,24,,,,,,,,,,,
99,Es LXVI,Es,LXVI,65,Einsteinium,Se,[Ar].3d10.4s2.4p4,4p4,3P<2>,"4p-2.4p+ (0,3/2)*<3/2>",4620,30,,,,,,,,,,,
99,Es LXVII,Es,LXVII,66,Einsteinium,As,[Ar].3d10.4s2.4p3,4p-2.4p+,"(0,3/2)*<3/2>",4p2 3P<0>,4700,40,,,,,,,,,,,
99,Es LXVIII,Es,LXVIII,67,Einsteinium,Ge,[Ar].3d10.4s2.4p2,4p2,3P0,4p 2P*<1/2>,5260,40,,,,,,,,,,,
99,Es LXIX,Es,LXIX,68,Einsteinium,Ga,[Ar].3d10.4s2.4p,4p,2P*<1/2>,4s2 1S<0>,5350,50,,,,,,,,,,,
99,Es LXX,Es,LXX,69,Einsteinium,Zn,[Ar].3d10.4s2,4s2,1S0,4s 2S<1/2>,5600,50,,,,,,,,,,,
99,Es LXXI,Es,LXXI,70,Einsteinium,Cu,[Ar].3d10.4s,4s,2S<1/2>,3d10 1S<0>,5690,60,,,,,,,,,,,
99,Es LXXII,Es,LXXII,71,Einsteinium,Ni,[Ar].3d10,3d10,1S0,3d9 2D<5/2>,8960,60,,,,,,,,,,,
99,Es LXXIII,Es,LXXIII,72,Einsteinium,Co,[Ar].3d9,3d9,2D<5/2>,3d8 3F<4>,9140,70,,,,,,,,,,,
99,Es LXXIV,Es,LXXIV,73,Einsteinium,Fe,[Ar].3d8,3d8,3F<4>,3d7 4F<9/2>,9330,90,,,,,,,,,,,
99,Es LXXV,Es,LXXV,74,Einsteinium,Mn,[Ar].3d7,3d7,4F<9/2>,"3d-4.3d+2 (0,4)<4>",9530,90,,,,,,,,,,,
99,Es LXXVI,Es,LXXVI,75,Einsteinium,Cr,[Ar].3d6,3d-4.3d+2,"(0,4)<4>","3d-4.3d+ (0,5/2)<5/2>",9720,100,,,,,,,,,,,
99,Es LXXVII,Es,LXXVII,76,Einsteinium,V,[Ar].3d5,3d-4.3d+,"(0,5/2)<5/2>",3d4 5D<0>,9910,110,,,,,,,,,,,
99,Es LXXVIII,Es,LXXVIII,77,Einsteinium,Ti,[Ar].3d4,3d4,5D0,3d3 4F<3/2>,10400,120,,,,,,,,,,,
99,Es LXXIX,Es,LXXIX,78,Einsteinium,Sc,[Ar].3d3,3d3,4F<3/2>,3d2 3F<2>,10590,120,,,,,,,,,,,
99,Es LXXX,Es,LXXX,79,Einsteinium,Ca,[Ar].3d2,3d2,3F<2>,3d 2D<3/2>,10810,140,,,,,,,,,,,
99,Es LXXXI,Es,LXXXI,80,Einsteinium,K,[Ar].3d,3d,2D<3/2>,3p6 1S<0>,11010,150,,,,,,,,,,,
99,Es LXXXII,Es,LXXXII,81,Einsteinium,Ar,[Ne].3s2.3p6,3p6,1S0,3p5 2P*<3/2>,11570,160,,,,,,,,,,,
99,Es LXXXIII,Es,LXXXIII,82,Einsteinium,Cl,[Ne].3s2.3p5,3p5,2P*<3/2>,3p4 3P<2>,11740,170,,,,,,,,,,,
99,Es LXXXIV,Es,LXXXIV,83,Einsteinium,S,[Ne].3s2.3p4,3p4,3P<2>,3p3 2P*<3/2>,11930,190,,,,,,,,,,,
99,Es LXXXV,Es,LXXXV,84,Einsteinium,P,[Ne].3s2.3p3,3p3,2P*<3/2>,3p2 3P<0>,12110,200,,,,,,,,,,,
99,Es LXXXVI,Es,LXXXVI,85,Einsteinium,Si,[Ne].3s2.3p2,3p2,3P0,3p 2P*<1/2>,13810,220,,,,,,,,,,,
99,Es LXXXVII,Es,LXXXVII,86,Einsteinium,Al,[Ne].3s2.3p,3p,2P*<1/2>,3s2 1S<0>,14030,240,,,,,,,,,,,
99,Es LXXXVIII,Es,LXXXVIII,87,Einsteinium,Mg,[Ne].3s2,3s2,1S0,3s 2S<1/2>,14460,250,,,,,,,,,,,
99,Es LXXXIX,Es,LXXXIX,88,Einsteinium,Na,[Ne].3s,3s,2S<1/2>,2p6 1S<0>,14700,300,,,,,,,,,,,
99,Es XC,Es,XC,89,Einsteinium,Ne,1s2.2s2.2p6,2p6,1S0,2p5 2P*<3/2>,29700,300,,,,,,,,,,,
99,Es XCI,Es,XCI,90,Einsteinium,F,1s2.2s2.2p5,2p5,2P*<3/2>,2p4 3P<2>,30100,300,,,,,,,,,,,
99,Es XCII,Es,XCII,91,Einsteinium,O,1s2.2s2.2p4,2p4,3P<2>,"2p2<1/2>.2p<3/2> (0,3/2)*<3/2>",30700,300,,,,,,,,,,,
99,Es XCIII,Es,XCIII,92,Einsteinium,N,1s2.2s2.2p3,2p2<1/2>.2p<3/2>,"(0,3/2)*<3/2>",2p2 3P<0>,31100,400,,,,,,,,,,,
99,Es XCIV,Es,XCIV,93,Einsteinium,C,1s2.2s2.2p2,2p2,3P0,2p 2P*<1/2>,37400,400,,,,,,,,,,,
99,Es XCV,Es,XCV,94,Einsteinium,B,1s2.2s2.2p,2p,2P*<1/2>,2s2 1S<0>,38100,400,,,,,,,,,,,
99,Es XCVI,Es,XCVI,95,Einsteinium,Be,1s2.2s2,2s2,1S0,2s 2S<1/2>,38900,400,,,,,,,,,,,
99,Es XCVII,Es,XCVII,96,Einsteinium,Li,1s2.2s,1s2.2s,2S<1/2>,1s2 1S<0>,39451.4,1,,,,,,,,,,,
99,Es XCVIII,Es,XCVIII,97,Einsteinium,He,1s2,1s2,1S0,1s 2S<1/2>,154344,6,,,,,,,,,,,
99,Es XCIX,Es,XCIX,98,Einsteinium,H,1s,1s,2S<1/2>,,156927,6,,,,,,,,,,,
100,Fm I,Fm,I,0,Fermium,Fm,[Rn].5f12.7s2,5f12.7s2,3H<6>,5f12.7s 4H<13/2>,6.5,0.07,,,,,,,,,,,
100,Fm II,Fm,II,1,Fermium,Es,[Rn].5f12.7s,5f12.7s,4H<13/2>,5f12 3H<6>,12.4,0.4,,,,,,,,,,,
100,Fm III,Fm,III,2,Fermium,Cf,[Rn].5f12,5f12,3H<6>,5f11 4I*<15/2>,23.2,0.4,,,,,,,,,,,
100,Fm IV,Fm,IV,3,Fermium,Bk,[Rn].5f11,5f11,4I*<15/2>,5f10 5I<8>,39.3,0.4,,,,,,,,,,,
100,Fm V,Fm,V,4,Fermium,Cm,[Rn].5f10,5f10,5I<8>,5f9 6H*<15/2>,55,1.9,,,,,,,,,,,
100,Fm VI,Fm,VI,5,Fermium,Am,[Rn].5f9,5f9,6H*<15/2>,5f8 7F<6>,74,2,,,,,,,,,,,
100,Fm VII,Fm,VII,6,Fermium,Pu,[Rn].5f8,5f8,7F<6>,5f7 8S*<7/2>,93,2,,,,,,,,,,,
100,Fm VIII,Fm,VIII,7,Fermium,Np,[Rn].5f7,5f7,8S*<7/2>,5f6 7F<0>,120,2.1,,,,,,,,,,,
100,Fm IX,Fm,IX,8,Fermium,U,[Rn].5f6,5f6,7F0,5f5 6H*<5/2>,136,2.2,,,,,,,,,,,
100,Fm X,Fm,X,9,Fermium,Pa,[Rn].5f5,5f5,6H*<5/2>,5f4 5I<4>,162,2.2,,,,,,,,,,,
100,Fm XI,Fm,XI,10,Fermium,Th,[Rn].5f4,5f4,5I<4>,5f7.6p2,185,9,,,,,,,,,,,
100,Fm XII,Fm,XII,11,Fermium,Ac,[Hg].5f7.6p2,5f7.6p2,*,5f6.6p2,209,10,,,,,,,,,,,
100,Fm XIII,Fm,XIII,12,Fermium,Ra,[Hg].5f6.6p2,5f6.6p2,,5f5.6p2*,237,12,,,,,,,,,,,
100,Fm XIV,Fm,XIV,13,Fermium,Fr,[Hg].5f5.6p2,5f5.6p2,*,5f5.6p,257,12,,,,,,,,,,,
100,Fm XV,Fm,XV,14,Fermium,Rn,[Hg].5f5.6p,5f5.6p,,5f5*,276,14,,,,,,,,,,,
100,Fm XVI,Fm,XVI,15,Fermium,At,[Hg].5f5,5f5,*,5f4,300,15,,,,,,,,,,,
100,Fm XVII,Fm,XVII,16,Fermium,Po,[Hg].5f4,5f4,,5f3*,326,16,,,,,,,,,,,
100,Fm XVIII,Fm,XVIII,17,Fermium,Bi,[Hg].5f3,5f3,*,5f2,351,17,,,,,,,,,,,
100,Fm XIX,Fm,XIX,18,Fermium,Pb,[Hg].5f2,5f2,,5f 2F*<5/2>,377,19,,,,,,,,,,,
100,Fm XX,Fm,XX,19,Fermium,Tl,[Hg].5f,5f,2F*<5/2>,6s2 1S<0>,402,20,,,,,,,,,,,
100,Fm XXI,Fm,XXI,20,Fermium,Hg,[Xe].4f14.5d10.6s2,6s2,1S0,6s 2S<1/2>,430,4,,,,,,,,,,,
100,Fm XXII,Fm,XXII,21,Fermium,Au,[Xe].4f14.5d10.6s,6s,2S<1/2>,5d10 1S<0>,453,4,,,,,,,,,,,
100,Fm XXIII,Fm,XXIII,22,Fermium,Pt,[Xe].4f14.5d10,5d10,1S0,5d9 2D<5/2>,616,4,,,,,,,,,,,
100,Fm XXIV,Fm,XXIV,23,Fermium,Ir,[Xe].4f14.5d9,5d9,2D<5/2>,5d8 3F<4>,647,4,,,,,,,,,,,
100,Fm XXV,Fm,XXV,24,Fermium,Os,[Xe].4f14.5d8,5d8,3F<4>,5d7 4F<9/2>,680,4,,,,,,,,,,,
100,Fm XXVI,Fm,XXVI,25,Fermium,Re,[Xe].4f14.5d7,5d7,4F<9/2>,5d6 5D<4>,716,4,,,,,,,,,,,
100,Fm XXVII,Fm,XXVII,26,Fermium,W,[Xe].4f14.5d6,5d6,5D<4>,5d5 6S<5/2>,749,4,,,,,,,,,,,