At. num,Sp. Name,Element,Valence,Ion Charge,El. Name,Isoel. Seq.,Ground Shells (a),Ground Config.,Ground Level,Ionized Level,Ionization Energy (b) (eV),Uncertainty (c) (eV),,,,,,,,,,,
37,Rb XVII,Rb,XVII,16,Rubidium,Sc,[Ar].3d3,3d3,4F<3/2>,3d2 3F<2>,601,3,,,,,,,,,,,
37,Rb XVIII,Rb,XVIII,17,Rubidium,Ca,[Ar].3d2,3d2,3F<2>,3d 2D<3/2>,654,3,,,,,,,,,,,
37,Rb XIX,Rb,XIX,18,Rubidium,K,[Ar].3d,3p6.3d,2D<3/2>,3p6 1S<0>,706,2.2,,,,,,,,,,,
37,Rb XX,Rb,XX,19,Rubidium,Ar,[Ne].3s2.3p6,3s2.3p6,1S0,3p5 2P*<3/2>,857,3,,,,,,,,,,,
37,Rb XXI,Rb,XXI,20,Rubidium,Cl,[Ne].3s2.3p5,3s2.3p5,2P*<3/2>,3p4 3P<2>,905.3,1,,,,,,,,,,,
37,Rb XXII,Rb,XXII,21,Rubidium,S,[Ne].3s2.3p4,3s2.3p4,3P<2>,3p3 4S*<3/2>,958.9,1.4,,,,,,,,,,,
37,Rb XXIII,Rb,XXIII,22,Rubidium,P,[Ne].3s2.3p3,3s2.3p3,4S*<3/2>,3p2 3P<0>,1024,4,,,,,,,,,,,
37,Rb XXIV,Rb,XXIV,23,Rubidium,Si,[Ne].3s2.3p2,3s2.3p2,3P0,3p 2P*<1/2>,1080,3,,,,,,,,,,,
37,Rb XXV,Rb,XXV,24,Rubidium,Al,[Ne].3s2.3p,3s2.3p,2P*<1/2>,3s2 1S<0>,1125,5,,,,,,,,,,,
37,Rb XXVI,Rb,XXVI,25,Rubidium,Mg,[Ne].3s2,3s2,1S0,3s 2S<1/2>,1242.5,1.7,,,,,,,,,,,
37,Rb XXVII,Rb,XXVII,26,Rubidium,Na,[Ne].3s,3s,2S<1/2>,2p6 1S<0>,1294.57,0.04,,,,,,,,,,,
37,Rb XXVIII,Rb,XXVIII,27,Rubidium,Ne,1s2.2s2.2p6,2s2.2p6,1S0,2p5 2P*<3/2>,3133.3,1.8,,,,,,,,,,,
37,Rb XXIX,Rb,XXIX,28,Rubidium,F,1s2.2s2.2p5,2s2.2p5,2P*<3/2>,2p4 3P<2>,3281,6,,,,,,,,,,,
37,Rb XXX,Rb,XXX,29,Rubidium,O,1s2.2s2.2p4,2s2.2p4,3P<2>,2p3 4S*<3/2>,3443,8,,,,,,,,,,,
37,Rb XXXI,Rb,XXXI,30,Rubidium,N,1s2.2s2.2p3,2s2.2p3,4S*<3/2>,2p2 3P<0>,3600,30,,,,,,,,,,,
37,Rb XXXII,Rb,XXXII,31,Rubidium,C,1s2.2s2.2p2,2p2,3P0,2p 2P*<1/2>,3815,4,,,,,,,,,,,
37,Rb XXXIII,Rb,XXXIII,32,Rubidium,B,1s2.2s2.2p,2s2.2p,2P*<1/2>,2s2 1S<0>,3988,3,,,,,,,,,,,
37,Rb XXXIV,Rb,XXXIV,33,Rubidium,Be,1s2.2s2,2s2,1S0,2s 2S<1/2>,4214,4,,,,,,,,,,,
37,Rb XXXV,Rb,XXXV,34,Rubidium,Li,1s2.2s,1s2.2s,2S<1/2>,1s2 1S<0>,4356.865,0.01,,,,,,,,,,,
37,Rb XXXVI,Rb,XXXVI,35,Rubidium,He,1s2,1s2,1S0,1s 2S<1/2>,18305.886,0.004,,,,,,,,,,,
37,Rb XXXVII,Rb,XXXVII,36,Rubidium,H,1s,1s,2S<1/2>,,18965.5484,0.002,,,,,,,,,,,
38,Sr I,Sr,I,0,Strontium,Sr,[Kr].5s2,5s2,1S0,5s 2S<1/2>,5.69486745,0.00000012,,,,,,,,,,,
38,Sr II,Sr,II,1,Strontium,Rb,[Kr].5s,4p6.5s,2S<1/2>,4p6 1S<0>,11.0302765,0.0000025,,,,,,,,,,,
38,Sr III,Sr,III,2,Strontium,Kr,[Ar].3d10.4s2.4p6,4p6,1S0,4p5 2P*<3/2>,42.88353,0.00019,,,,,,,,,,,
38,Sr IV,Sr,IV,3,Strontium,Br,[Ar].3d10.4s2.4p5,4s2.4p5,2P*<3/2>,4s2.4p4 3P<2>,56.28,0.003,,,,,,,,,,,
38,Sr V,Sr,V,4,Strontium,Se,[Ar].3d10.4s2.4p4,4s2.4p4,3P<2>,4s2.4p3 4S*<3/2>,70.7,0.6,,,,,,,,,,,
38,Sr VI,Sr,VI,5,Strontium,As,[Ar].3d10.4s2.4p3,4s2.4p3,4S*<3/2>,4s2.4p2 2P<0>,88,2,,,,,,,,,,,
38,Sr VII,Sr,VII,6,Strontium,Ge,[Ar].3d10.4s2.4p2,4s2.4p2,3P0,4s2.4p 2P*<1/2>,104,2,,,,,,,,,,,
38,Sr VIII,Sr,VIII,7,Strontium,Ga,[Ar].3d10.4s2.4p,4s2.4p,2P*<1/2>,4s2 1S<0>,121.21,0.06,,,,,,,,,,,
38,Sr IX,Sr,IX,8,Strontium,Zn,[Ar].3d10.4s2,4s2,1S0,4s 2S<1/2>,158.33,0.25,,,,,,,,,,,
38,Sr X,Sr,X,9,Strontium,Cu,[Ar].3d10.4s,3d10.4s,2S<1/2>,3d10 1S<0>,177.3,0.06,,,,,,,,,,,
38,Sr XI,Sr,XI,10,Strontium,Ni,[Ar].3d10,3d10,1S0,3d9 2D<5/2>,324.07,0.15,,,,,,,,,,,
38,Sr XII,Sr,XII,11,Strontium,Co,[Ar].3d9,3p6.3d9,2D<5/2>,3d8 3F<4>,362,2.5,,,,,,,,,,,
38,Sr XIII,Sr,XIII,12,Strontium,Fe,[Ar].3d8,3p6.3d8,3F<4>,3d7 4F<9/2>,408,3,,,,,,,,,,,
38,Sr XIV,Sr,XIV,13,Strontium,Mn,[Ar].3d7,3p6.3d7,4F<9/2>,3d6 5D<4>,454,3,,,,,,,,,,,
38,Sr XV,Sr,XV,14,Strontium,Cr,[Ar].3d6,3d6,5D<4>,3d5 6S<5/2>,499,3,,,,,,,,,,,
38,Sr XVI,Sr,XVI,15,Strontium,V,[Ar].3d5,3d5,6S<5/2>,3d4 5D<0>,562,3,,,,,,,,,,,
38,Sr XVII,Sr,XVII,16,Strontium,Ti,[Ar].3d4,3d4,5D0,3d3 4F<3/2>,612,3,,,,,,,,,,,
38,Sr XVIII,Sr,XVIII,17,Strontium,Sc,[Ar].3d3,3d3,4F<3/2>,3d2 3F<2>,665,3,,,,,,,,,,,
38,Sr XIX,Sr,XIX,18,Strontium,Ca,[Ar].3d2,3d2,3F<2>,3d 2D<3/2>,722,3,,,,,,,,,,,
38,Sr XX,Sr,XX,19,Strontium,K,[Ar].3d,3p6.3d,2D<3/2>,3p6 1S<0>,774,4,,,,,,,,,,,
38,Sr XXI,Sr,XXI,20,Strontium,Ar,[Ne].3s2.3p6,3p6,1S0,3p5 2P*<3/2>,932,3,,,,,,,,,,,
38,Sr XXII,Sr,XXII,21,Strontium,Cl,[Ne].3s2.3p5,3p5,2P*<3/2>,3p4 3P<2>,982.1,1.1,,,,,,,,,,,
38,Sr XXIII,Sr,XXIII,22,Strontium,S,[Ne].3s2.3p4,3p4,3P<2>,3p3 4S*<3/2>,1038,1.5,,,,,,,,,,,
38,Sr XXIV,Sr,XXIV,23,Strontium,P,[Ne].3s2.3p3,3p3,4S*<3/2>,3p2 3P<0>,1105,4,,,,,,,,,,,
38,Sr XXV,Sr,XXV,24,Strontium,Si,[Ne].3s2.3p2,3s2.3p2,3P0,3p 2P*<1/2>,1165,3,,,,,,,,,,,
38,Sr XXVI,Sr,XXVI,25,Strontium,Al,[Ne].3s2.3p,3s2.3p,2P*<1/2>,3s2 1S<0>,1211,6,,,,,,,,,,,
38,Sr XXVII,Sr,XXVII,26,Strontium,Mg,[Ne].3s2,3s2,1S0,3s 2S<1/2>,1333.4,1.9,,,,,,,,,,,
38,Sr XXVIII,Sr,XXVIII,27,Strontium,Na,[Ne].3s,2p6.3s,2S<1/2>,2p6 1S<0>,1387.19,0.05,,,,,,,,,,,
38,Sr XXIX,Sr,XXIX,28,Strontium,Ne,1s2.2s2.2p6,2s2.2p6,1S0,2p5 2P*<3/2>,3344.7,1.9,,,,,,,,,,,
38,Sr XXX,Sr,XXX,29,Strontium,F,1s2.2s2.2p5,2s2.2p5,2P*<3/2>,2p4 3P<2>,3497,6,,,,,,,,,,,
38,Sr XXXI,Sr,XXXI,30,Strontium,O,1s2.2s2.2p4,2s2.2p4,3P<2>,2p3 4S*<3/2>,3664,8,,,,,,,,,,,
38,Sr XXXII,Sr,XXXII,31,Strontium,N,1s2.2s2.2p3,2s2.2p3,4S*<3/2>,2s2.2p2 3P<0>,3830,30,,,,,,,,,,,
38,Sr XXXIII,Sr,XXXIII,32,Strontium,C,1s2.2s2.2p2,2s2.2p2,3P0,2s2.2p 2P*<1/2>,4053,4,,,,,,,,,,,
38,Sr XXXIV,Sr,XXXIV,33,Strontium,B,1s2.2s2.2p,2s2.2p,2P*<1/2>,2s2 1S<0>,4232,3,,,,,,,,,,,
38,Sr XXXV,Sr,XXXV,34,Strontium,Be,1s2.2s2,2s2,1S0,2s 2S<1/2>,4465,4,,,,,,,,,,,
38,Sr XXXVI,Sr,XXXVI,35,Strontium,Li,1s2.2s,1s2.2s,2S<1/2>,1s2 1S<0>,4612.397,0.011,,,,,,,,,,,
38,Sr XXXVII,Sr,XXXVII,36,Strontium,He,1s2,1s2,1S0,1s 2S<1/2>,19345.59,0.005,,,,,,,,,,,
38,Sr XXXVIII,Sr,XXXVIII,37,Strontium,H,1s,1s,2S<1/2>,,20025.2673,0.0024,,,,,,,,,,,
39,Y I,Y,I,0,Yttrium,Y,[Kr].4d.5s2,4d.5s2,2D<3/2>,5s2 1S<0>,6.21726,0.0001,,,,,,,,,,,
39,Y II,Y,II,1,Yttrium,Sr,[Kr].5s2,5s2,1S0,4d 2D<3/2>,12.2236,0.0006,,,,,,,,,,,
39,Y III,Y,III,2,Yttrium,Rb,[Kr].4d,4p6.4d,2D<3/2>,4p6 1S<0>,20.52441,0.00012,,,,,,,,,,,
39,Y IV,Y,IV,3,Yttrium,Kr,[Ar].3d10.4s2.4p6,4s2.4p6,1S0,4s2.4p5 2P*<3/2>,60.6072,0.0025,,,,,,,,,,,
39,Y V,Y,V,4,Yttrium,Br,[Ar].3d10.4s2.4p5,4s2.4p5,2P*<3/2>,4p4 3P<2>,75.35,0.04,,,,,,,,,,,
39,Y VI,Y,VI,5,Yttrium,Se,[Ar].3d10.4s2.4p4,4p4,3P<2>,4p3 4S*<3/2>,91.39,0.025,,,,,,,,,,,
39,Y VII,Y,VII,6,Yttrium,As,[Ar].3d10.4s2.4p3,4s2.4p3,4S*<3/2>,4p2 3P<0>,110.02,0.15,,,,,,,,,,,
39,Y VIII,Y,VIII,7,Yttrium,Ge,[Ar].3d10.4s2.4p2,4s2.4p2,3P0,4p 2P*<1/2>,128.12,0.12,,,,,,,,,,,
39,Y IX,Y,IX,8,Yttrium,Ga,[Ar].3d10.4s2.4p,4p,2P*<1/2>,4s2 1S<0>,145.64,0.04,,,,,,,,,,,
39,Y X,Y,X,9,Yttrium,Zn,[Ar].3d10.4s2,4s2,1S0,4s 2S<1/2>,185.7,0.4,,,,,,,,,,,
39,Y XI,Y,XI,10,Yttrium,Cu,[Ar].3d10.4s,4s,2S<1/2>,3d10 1S<0>,205.814,0.025,,,,,,,,,,,
39,Y XII,Y,XII,11,Yttrium,Ni,[Ar].3d10,3d10,1S0,3d9 2D<5/2>,374.04,0.25,,,,,,,,,,,
39,Y XIII,Y,XIII,12,Yttrium,Co,[Ar].3d9,3p6.3d9,2D<5/2>,3d8 3F<4>,414,3,,,,,,,,,,,
39,Y XIV,Y,XIV,13,Yttrium,Fe,[Ar].3d8,3d8,3F<4>,3d7 4F<9/2>,463,3,,,,,,,,,,,
39,Y XV,Y,XV,14,Yttrium,Mn,[Ar].3d7,3d7,4F<9/2>,3d6 5D<4>,512,3,,,,,,,,,,,
39,Y XVI,Y,XVI,15,Yttrium,Cr,[Ar].3d6,3d6,5D<4>,3d5 6S<5/2>,559,3,,,,,,,,,,,
39,Y XVII,Y,XVII,16,Yttrium,V,[Ar].3d5,3d5,6S<5/2>,3d4 5D<0>,624,3,,,,,,,,,,,
39,Y XVIII,Y,XVIII,17,Yttrium,Ti,[Ar].3d4,3d4,5D0,3d3 4F<3/2>,677,3,,,,,,,,,,,
39,Y XIX,Y,XIX,18,Yttrium,Sc,[Ar].3d3,3d3,4F<3/2>,3d2 3F<2>,733,3,,,,,,,,,,,
39,Y XX,Y,XX,19,Yttrium,Ca,[Ar].3d2,3d2,3F<2>,3d 2D<3/2>,790,4,,,,,,,,,,,
39,Y XXI,Y,XXI,20,Yttrium,K,[Ar].3d,3d,2D<3/2>,3p6 1S<0>,847,4,,,,,,,,,,,
39,Y XXII,Y,XXII,21,Yttrium,Ar,[Ne].3s2.3p6,3p6,1S0,3p5 2P*<3/2>,1010,3,,,,,,,,,,,
39,Y XXIII,Y,XXIII,22,Yttrium,Cl,[Ne].3s2.3p5,3p5,2P*<3/2>,3p4 3P<2>,1061.9,1.2,,,,,,,,,,,
39,Y XXIV,Y,XXIV,23,Yttrium,S,[Ne].3s2.3p4,3p4,3P<2>,3p3 4S*<3/2>,1120.2,1.6,,,,,,,,,,,
39,Y XXV,Y,XXV,24,Yttrium,P,[Ne].3s2.3p3,3p3,4S*<3/2>,3p2 3P<0>,1190,4,,,,,,,,,,,
39,Y XXVI,Y,XXVI,25,Yttrium,Si,[Ne].3s2.3p2,3p2,3P0,3p 2P*<1/2>,1253,3,,,,,,,,,,,
39,Y XXVII,Y,XXVII,26,Yttrium,Al,[Ne].3s2.3p,3p,2P*<1/2>,3s2 1S<0>,1300,6,,,,,,,,,,,
39,Y XXVIII,Y,XXVIII,27,Yttrium,Mg,[Ne].3s2,3s2,1S0,3s 2S<1/2>,1427.6,2,,,,,,,,,,,
39,Y XXIX,Y,XXIX,28,Yttrium,Na,[Ne].3s,3s,2S<1/2>,2p6 1S<0>,1483.12,0.05,,,,,,,,,,,
39,Y XXX,Y,XXX,29,Yttrium,Ne,1s2.2s2.2p6,2p6,1S0,2p5 2P*<3/2>,3562.9,2,,,,,,,,,,,
39,Y XXXI,Y,XXXI,30,Yttrium,F,1s2.2s2.2p5,2p5,2P*<3/2>,2p4 3P<2>,3720,6,,,,,,,,,,,
39,Y XXXII,Y,XXXII,31,Yttrium,O,1s2.2s2.2p4,2p4,3P<2>,"2p2<1/2>.2p<3/2> (0,3/2)*<3/2>",3892,8,,,,,,,,,,,
39,Y XXXIII,Y,XXXIII,32,Yttrium,N,1s2.2s2.2p3,2p2<1/2>.2p<3/2>,"(0,3/2)*<3/2>",2p2 3P<0>,4060,30,,,,,,,,,,,
39,Y XXXIV,Y,XXXIV,33,Yttrium,C,1s2.2s2.2p2,2p2,3P0,2p 2P*<1/2>,4299,5,,,,,,,,,,,
39,Y XXXV,Y,XXXV,34,Yttrium,B,1s2.2s2.2p,2p,2P*<1/2>,2s2 1S<0>,4484,3,,,,,,,,,,,
39,Y XXXVI,Y,XXXVI,35,Yttrium,Be,1s2.2s2,2s2,1S0,2s 2S<1/2>,4724,5,,,,,,,,,,,
39,Y XXXVII,Y,XXXVII,36,Yttrium,Li,1s2.2s,1s2.2s,2S<1/2>,1s2 1S<0>,4875.731,0.012,,,,,,,,,,,
39,Y XXXVIII,Y,XXXVIII,37,Yttrium,He,1s2,1s2,1S0,1s 2S<1/2>,20415.719,0.006,,,,,,,,,,,
39,Y XXXIX,Y,XXXIX,38,Yttrium,H,1s,1s,2S<1/2>,,21115.588,0.003,,,,,,,,,,,
40,Zr I,Zr,I,0,Zirconium,Zr,[Kr].4d2.5s2,4d2.5s2,3F<2>,4d2.5s 4F<3/2>,6.634126,0.000005,,,,,,,,,,,
40,Zr II,Zr,II,1,Zirconium,Y,[Kr].4d2.5s,4d2.(3F).5s,4F<3/2>,4d2 3F<2>,13.13,,,,,,,,,,,,
40,Zr III,Zr,III,2,Zirconium,Sr,[Kr].4d2,4d2,3F<2>,4d 2D<3/2>,23.17,0.004,,,,,,,,,,,
40,Zr IV,Zr,IV,3,Zirconium,Rb,[Kr].4d,4p6.4d,2D<3/2>,4p6 1S<0>,34.41836,0.00006,,,,,,,,,,,
40,Zr V,Zr,V,4,Zirconium,Kr,[Ar].3d10.4s2.4p6,4p6,1S0,4p5 2P*<3/2>,80.348,0.007,,,,,,,,,,,
40,Zr VI,Zr,VI,5,Zirconium,Br,[Ar].3d10.4s2.4p5,4s2.4p5,2P*<3/2>,4p4 3P<2>,96.38,0.04,,,,,,,,,,,
40,Zr VII,Zr,VII,6,Zirconium,Se,[Ar].3d10.4s2.4p4,4p4,3P<2>,4p3 4S*<3/2>,112,2,,,,,,,,,,,
40,Zr VIII,Zr,VIII,7,Zirconium,As,[Ar].3d10.4s2.4p3,4p3,4S*<3/2>,4p2 3P<0>,133.7,0.5,,,,,,,,,,,
40,Zr IX,Zr,IX,8,Zirconium,Ge,[Ar].3d10.4s2.4p2,4p2,3P0,4p 2P*<1/2>,153,2.2,,,,,,,,,,,
40,Zr X,Zr,X,9,Zirconium,Ga,[Ar].3d10.4s2.4p,4p,2P*<1/2>,4s2 1S<0>,172.02,0.05,,,,,,,,,,,
40,Zr XI,Zr,XI,10,Zirconium,Zn,[Ar].3d10.4s2,4s2,1S0,4s 2S<1/2>,214.9,0.4,,,,,,,,,,,
40,Zr XII,Zr,XII,11,Zirconium,Cu,[Ar].3d10.4s,4s,2S<1/2>,3d10 1S<0>,236.252,0.025,,,,,,,,,,,
40,Zr XIII,Zr,XIII,12,Zirconium,Ni,[Ar].3d10,3d10,1S0,3d9 2D<5/2>,426,3,,,,,,,,,,,
40,Zr XIV,Zr,XIV,13,Zirconium,Co,[Ar].3d9,3p6.3d9,2D<5/2>,3d8 3F<4>,470,3,,,,,,,,,,,
40,Zr XV,Zr,XV,14,Zirconium,Fe,[Ar].3d8,3d8,3F<4>,3d7 4F<9/2>,520,3,,,,,,,,,,,
40,Zr XVI,Zr,XVI,15,Zirconium,Mn,[Ar].3d7,3d7,4F<9/2>,3d6 5D<4>,573,3,,,,,,,,,,,
40,Zr XVII,Zr,XVII,16,Zirconium,Cr,[Ar].3d6,3d6,5D<4>,3d5 6S<5/2>,622,3,,,,,,,,,,,
40,Zr XVIII,Zr,XVIII,17,Zirconium,V,[Ar].3d5,3d5,6S<5/2>,3d4 5D<0>,690,3,,,,,,,,,,,
40,Zr XIX,Zr,XIX,18,Zirconium,Ti,[Ar].3d4,3d4,5D0,3d3 4F<3/2>,745,3,,,,,,,,,,,
40,Zr XX,Zr,XX,19,Zirconium,Sc,[Ar].3d3,3d3,4F<3/2>,3d2 3F<2>,803,4,,,,,,,,,,,
40,Zr XXI,Zr,XXI,20,Zirconium,Ca,[Ar].3d2,3d2,3F<2>,3d 2D<3/2>,863,4,,,,,,,,,,,
40,Zr XXII,Zr,XXII,21,Zirconium,K,[Ar].3d,3d,2D<3/2>,3p6 1S<0>,922,4,,,,,,,,,,,
40,Zr XXIII,Zr,XXIII,22,Zirconium,Ar,[Ne].3s2.3p6,3p6,1S0,3p5 2P*<3/2>,1092,3,,,,,,,,,,,
40,Zr XXIV,Zr,XXIV,23,Zirconium,Cl,[Ne].3s2.3p5,3p5,2P*<3/2>,3p4 3P<2>,1144.7,1.2,,,,,,,,,,,
40,Zr XXV,Zr,XXV,24,Zirconium,S,[Ne].3s2.3p4,3p4,3P<2>,3p3 4S*<3/2>,1205.4,1.7,,,,,,,,,,,
40,Zr XXVI,Zr,XXVI,25,Zirconium,P,[Ne].3s2.3p3,3p3,4S*<3/2>,3p2 3P<0>,1277,5,,,,,,,,,,,
40,Zr XXVII,Zr,XXVII,26,Zirconium,Si,[Ne].3s2.3p2,3p2,3P0,3p 2P*<1/2>,1344,3,,,,,,,,,,,
40,Zr XXVIII,Zr,XXVIII,27,Zirconium,Al,[Ne].3s2.3p,3p,2P*<1/2>,3s2 1S<0>,1392,7,,,,,,,,,,,
40,Zr XXIX,Zr,XXIX,28,Zirconium,Mg,[Ne].3s2,3s2,1S0,3s 2S<1/2>,1525.1,2.2,,,,,,,,,,,
40,Zr XXX,Zr,XXX,29,Zirconium,Na,[Ne].3s,3s,2S<1/2>,2p6 1S<0>,1582.37,0.05,,,,,,,,,,,
40,Zr XXXI,Zr,XXXI,30,Zirconium,Ne,1s2.2s2.2p6,2p6,1S0,2p5 2P*<3/2>,3788,2.1,,,,,,,,,,,
40,Zr XXXII,Zr,XXXII,31,Zirconium,F,1s2.2s2.2p5,2p5,2P*<3/2>,2p4 3P<2>,3950,7,,,,,,,,,,,
40,Zr XXXIII,Zr,XXXIII,32,Zirconium,O,1s2.2s2.2p4,2p4,3P<2>,"2p2<1/2>.2p<3/2> (0,3/2)*<3/2>",4127,9,,,,,,,,,,,
40,Zr XXXIV,Zr,XXXIV,33,Zirconium,N,1s2.2s2.2p3,2p2<1/2>.2p<3/2>,"(0,3/2)*<3/2>",2p2 3P<0>,4300,30,,,,,,,,,,,
40,Zr XXXV,Zr,XXXV,34,Zirconium,C,1s2.2s2.2p2,2p2,3P0,2p 2P*<1/2>,4553,5,,,,,,,,,,,
40,Zr XXXVI,Zr,XXXVI,35,Zirconium,B,1s2.2s2.2p,2p,2P*<1/2>,2s2 1S<0>,4744,3,,,,,,,,,,,
40,Zr XXXVII,Zr,XXXVII,36,Zirconium,Be,1s2.2s2,2s2,1S0,2s 2S<1/2>,4991,5,,,,,,,,,,,
40,Zr XXXVIII,Zr,XXXVIII,37,Zirconium,Li,1s2.2s,1s2.2s,2S<1/2>,1s2 1S<0>,5146.935,0.014,,,,,,,,,,,
40,Zr XXXIX,Zr,XXXIX,38,Zirconium,He,1s2,1s2,1S0,1s 2S<1/2>,21516.471,0.006,,,,,,,,,,,
40,Zr XL,Zr,XL,39,Zirconium,H,1s,1s,2S<1/2>,,22236.712,0.004,,,,,,,,,,,
41,Nb I,Nb,I,0,Niobium,Nb,[Kr].4d4.5s,4d4.(5D).5s,6D<1/2>,4d4 5D<0>,6.75885,0.00004,,,,,,,,,,,
41,Nb II,Nb,II,1,Niobium,Zr,[Kr].4d4,4d4,5D0,4d3 4F<3/2>,14.32,,,,,,,,,,,,
41,Nb III,Nb,III,2,Niobium,Y,[Kr].4d3,4d3,4F<3/2>,4d2 3F<2>,25.04,,,,,,,,,,,,
41,Nb IV,Nb,IV,3,Niobium,Sr,[Kr].4d2,4d2,3F<2>,4d 2D<3/2>,37.611,0.022,,,,,,,,,,,
41,Nb V,Nb,V,4,Niobium,Rb,[Kr].4d,4p6.4d,2D<3/2>,4p6 1S<0>,50.5728,0.0025,,,,,,,,,,,
41,Nb VI,Nb,VI,5,Niobium,Kr,[Ar].3d10.4s2.4p6,4p6,1S0,4p5 2P*<3/2>,102.069,0.006,,,,,,,,,,,
41,Nb VII,Nb,VII,6,Niobium,Br,[Ar].3d10.4s2.4p5,4p5,2P*<3/2>,4p4 3P<2>,119.1,0.4,,,,,,,,,,,
41,Nb VIII,Nb,VIII,7,Niobium,Se,[Ar].3d10.4s2.4p4,4p4,3P<2>,4p3 4S*<3/2>,136,2.1,,,,,,,,,,,
41,Nb IX,Nb,IX,8,Niobium,As,[Ar].3d10.4s2.4p3,4p3,4S*<3/2>,4p2 3P<0>,159.2,0.7,,,,,,,,,,,
41,Nb X,Nb,X,9,Niobium,Ge,[Ar].3d10.4s2.4p2,4p2,3P0,4p 2P*<1/2>,180,2.2,,,,,,,,,,,
41,Nb XI,Nb,XI,10,Niobium,Ga,[Ar].3d10.4s2.4p,4p,2P*<1/2>,4s2 1S<0>,200.28,0.06,,,,,,,,,,,
41,Nb XII,Nb,XII,11,Niobium,Zn,[Ar].3d10.4s2,4s2,1S0,4s 2S<1/2>,246.1,0.4,,,,,,,,,,,
41,Nb XIII,Nb,XIII,12,Niobium,Cu,[Ar].3d10.4s,4s,2S<1/2>,3d10 1S<0>,268.59,0.04,,,,,,,,,,,
41,Nb XIV,Nb,XIV,13,Niobium,Ni,[Ar].3d10,3d10,1S0,3d9 2D<5/2>,482.5,1.5,,,,,,,,,,,
41,Nb XV,Nb,XV,14,Niobium,Co,[Ar].3d9,3p6.3d9,2D<5/2>,3d8 3F<4>,530,3,,,,,,,,,,,
41,Nb XVI,Nb,XVI,15,Niobium,Fe,[Ar].3d8,3d8,3F<4>,3d7 4F<9/2>,581,3,,,,,,,,,,,
41,Nb XVII,Nb,XVII,16,Niobium,Mn,[Ar].3d7,3d7,4F<9/2>,3d6 5D<4>,636,3,,,,,,,,,,,
41,Nb XVIII,Nb,XVIII,17,Niobium,Cr,[Ar].3d6,3d6,5D<4>,3d5 6S<5/2>,688,3,,,,,,,,,,,
41,Nb XIX,Nb,XIX,18,Niobium,V,[Ar].3d5,3d5,6S<5/2>,3d4 5D<0>,758,3,,,,,,,,,,,
41,Nb XX,Nb,XX,19,Niobium,Ti,[Ar].3d4,3d4,5D0,3d3 4F<3/2>,816,4,,,,,,,,,,,
41,Nb XXI,Nb,XXI,20,Niobium,Sc,[Ar].3d3,3d3,4F<3/2>,3d2 3F<2>,877,4,,,,,,,,,,,
41,Nb XXII,Nb,XXII,21,Niobium,Ca,[Ar].3d2,3d2,3F<2>,3d 2D<3/2>,940,4,,,,,,,,,,,
41,Nb XXIII,Nb,XXIII,22,Niobium,K,[Ar].3d,3d,2D<3/2>,3p6 1S<0>,1000,4,,,,,,,,,,,
41,Nb XXIV,Nb,XXIV,23,Niobium,Ar,[Ne].3s2.3p6,3p6,1S0,3p5 2P*<3/2>,1176,4,,,,,,,,,,,
41,Nb XXV,Nb,XXV,24,Niobium,Cl,[Ne].3s2.3p5,3p5,2P*<3/2>,3p4 3P<2>,1230.6,1.3,,,,,,,,,,,
41,Nb XXVI,Nb,XXVI,25,Niobium,S,[Ne].3s2.3p4,3p4,3P<2>,3p3 4S*<3/2>,1293.7,1.8,,,,,,,,,,,
41,Nb XXVII,Nb,XXVII,26,Niobium,P,[Ne].3s2.3p3,3p3,4S*<3/2>,3p2 3P<0>,1368,5,,,,,,,,,,,
41,Nb XXVIII,Nb,XXVIII,27,Niobium,Si,[Ne].3s2.3p2,3p2,3P0,3p 2P*<1/2>,1439,3,,,,,,,,,,,
41,Nb XXIX,Nb,XXIX,28,Niobium,Al,[Ne].3s2.3p,3p,2P*<1/2>,3s2 1S<0>,1488,7,,,,,,,,,,,
41,Nb XXX,Nb,XXX,29,Niobium,Mg,[Ne].3s2,3s2,1S0,3s 2S<1/2>,1625.9,2.3,,,,,,,,,,,
41,Nb XXXI,Nb,XXXI,30,Niobium,Na,[Ne].3s,3s,2S<1/2>,2p6 1S<0>,1684.97,0.05,,,,,,,,,,,
41,Nb XXXII,Nb,XXXII,31,Niobium,Ne,1s2.2s2.2p6,2p6,1S0,2p5 2P*<3/2>,4020.1,2.2,,,,,,,,,,,
41,Nb XXXIII,Nb,XXXIII,32,Niobium,F,1s2.2s2.2p5,2p5,2P*<3/2>,2p4 3P<2>,4187,7,,,,,,,,,,,
41,Nb XXXIV,Nb,XXXIV,33,Niobium,O,1s2.2s2.2p4,2p4,3P<2>,"2p2<1/2>.2p<3/2> (0,3/2)*<3/2>",4369,9,,,,,,,,,,,
41,Nb XXXV,Nb,XXXV,34,Niobium,N,1s2.2s2.2p3,2p2<1/2>.2p<3/2>,"(0,3/2)*<3/2>",2p2 3P<0>,4540,30,,,,,,,,,,,
41,Nb XXXVI,Nb,XXXVI,35,Niobium,C,1s2.2s2.2p2,2p2,3P0,2p 2P*<1/2>,4815,5,,,,,,,,,,,
41,Nb XXXVII,Nb,XXXVII,36,Niobium,B,1s2.2s2.2p,2p,2P*<1/2>,2s2 1S<0>,5011,4,,,,,,,,,,,
41,Nb XXXVIII,Nb,XXXVIII,37,Niobium,Be,1s2.2s2,2s2,1S0,2s 2S<1/2>,5265,5,,,,,,,,,,,
41,Nb XXXIX,Nb,XXXIX,38,Niobium,Li,1s2.2s,1s2.2s,2S<1/2>,1s2 1S<0>,5426.066,0.015,,,,,,,,,,,
41,Nb XL,Nb,XL,39,Niobium,He,1s2,1s2,1S0,1s 2S<1/2>,22648.046,0.007,,,,,,,,,,,
41,Nb XLI,Nb,XLI,40,Niobium,H,1s,1s,2S<1/2>,,23388.85,0.004,,,,,,,,,,,
42,Mo I,Mo,I,0,Molybdenum,Mo,[Kr].4d5.5s,4d5.(6S).5s,7S<3>,4d5 6S<5/2>,7.09243,0.00004,,,,,,,,,,,
42,Mo II,Mo,II,1,Molybdenum,Nb,[Kr].4d5,4d5,6S<5/2>,4d4 5D<0>,16.16,0.12,,,,,,,,,,,
42,Mo III,Mo,III,2,Molybdenum,Zr,[Kr].4d4,4d4,5D0,4d3 4F<3/2>,27.13,0.12,,,,,,,,,,,
42,Mo IV,Mo,IV,3,Molybdenum,Y,[Kr].4d3,4d3,4F<3/2>,4d2 3F<2>,40.33,0.06,,,,,,,,,,,
42,Mo V,Mo,V,4,Molybdenum,Sr,[Kr].4d2,4p6.4d2,3F<2>,4d 2D<3/2>,54.417,0.019,,,,,,,,,,,
42,Mo VI,Mo,VI,5,Molybdenum,Rb,[Kr].4d,4p6.4d,2D<3/2>,4p6 1S<0>,68.82704,0.00021,,,,,,,,,,,
42,Mo VII,Mo,VII,6,Molybdenum,Kr,[Ar].3d10.4s2.4p6,4s2.4p6,1S0,4p5 2P*<3/2>,125.638,0.025,,,,,,,,,,,
42,Mo VIII,Mo,VIII,7,Molybdenum,Br,[Ar].3d10.4s2.4p5,4s2.4p5,2P*<3/2>,4p4 3P<2>,143.6,1,,,,,,,,,,,
42,Mo IX,Mo,IX,8,Molybdenum,Se,[Ar].3d10.4s2.4p4,4s2.4p4,3P<2>,4p3 4S*<3/2>,164.12,0.09,,,,,,,,,,,
42,Mo X,Mo,X,9,Molybdenum,As,[Ar].3d10.4s2.4p3,4s2.4p3,4S*<3/2>,4p2 3P<0>,186.3,1.2,,,,,,,,,,,
42,Mo XI,Mo,XI,10,Molybdenum,Ge,[Ar].3d10.4s2.4p2,4s2.4p2,3P0,4p 2P*<1/2>,209.3,1.2,,,,,,,,,,,
42,Mo XII,Mo,XII,11,Molybdenum,Ga,[Ar].3d10.4s2.4p,4s2.4p,2P*<1/2>,4s2 1S<0>,230.28,0.06,,,,,,,,,,,
42,Mo XIII,Mo,XIII,12,Molybdenum,Zn,[Ar].3d10.4s2,3d10.4s2,1S0,4s 2S<1/2>,279.1,0.5,,,,,,,,,,,
42,Mo XIV,Mo,XIV,13,Molybdenum,Cu,[Ar].3d10.4s,3d10.4s,2S<1/2>,3d10 1S<0>,302.6,0.04,,,,,,,,,,,
42,Mo XV,Mo,XV,14,Molybdenum,Ni,[Ar].3d10,3d10,1S0,3d9 2D<5/2>,544,0.5,,,,,,,,,,,
42,Mo XVI,Mo,XVI,15,Molybdenum,Co,[Ar].3d9,3p6.3d9,2D<5/2>,3d8 3F<4>,591,3,,,,,,,,,,,
42,Mo XVII,Mo,XVII,16,Molybdenum,Fe,[Ar].3d8,3p6.3d8,3F<4>,3d7 4F<9/2>,646,3,,,,,,,,,,,
42,Mo XVIII,Mo,XVIII,17,Molybdenum,Mn,[Ar].3d7,3p6.3d7,4F<9/2>,3d6 5D<4>,702,3,,,,,,,,,,,
42,Mo XIX,Mo,XIX,18,Molybdenum,Cr,[Ar].3d6,3d6,5D<4>,3d5 6S<5/2>,758,3,,,,,,,,,,,
42,Mo XX,Mo,XX,19,Molybdenum,V,[Ar].3d5,3d5,6S<5/2>,3d4 5D<0>,829,4,,,,,,,,,,,
42,Mo XXI,Mo,XXI,20,Molybdenum,Ti,[Ar].3d4,3d4,5D0,3d3 4F<3/2>,890,4,,,,,,,,,,,
42,Mo XXII,Mo,XXII,21,Molybdenum,Sc,[Ar].3d3,3d3,4F<3/2>,3d2 3F<2>,953,4,,,,,,,,,,,
42,Mo XXIII,Mo,XXIII,22,Molybdenum,Ca,[Ar].3d2,3p6.3d2,3F<2>,3d 2D<3/2>,1019,4,,,,,,,,,,,
42,Mo XXIV,Mo,XXIV,23,Molybdenum,K,[Ar].3d,3p6.3d,2D<3/2>,3p6 1S<0>,1082,4,,,,,,,,,,,
42,Mo XXV,Mo,XXV,24,Molybdenum,Ar,[Ne].3s2.3p6,3s2.3p6,1S0,3p5 2P*<3/2>,1263,4,,,,,,,,,,,
42,Mo XXVI,Mo,XXVI,25,Molybdenum,Cl,[Ne].3s2.3p5,3s2.3p5,2P*<3/2>,3p4 3P<2>,1319.6,1.4,,,,,,,,,,,
42,Mo XXVII,Mo,XXVII,26,Molybdenum,S,[Ne].3s2.3p4,3s2.3p4,3P<2>,3p3 4S*<3/2>,1385.1,1.9,,,,,,,,,,,
42,Mo XXVIII,Mo,XXVIII,27,Molybdenum,P,[Ne].3s2.3p3,3s2.3p3,4S*<3/2>,3p2 3P<0>,1462,6,,,,,,,,,,,
42,Mo XXIX,Mo,XXIX,28,Molybdenum,Si,[Ne].3s2.3p2,3s2.3p2,3P0,3p 2P*<1/2>,1537,3,,,,,,,,,,,
42,Mo XXX,Mo,XXX,29,Molybdenum,Al,[Ne].3s2.3p,3s2.3p,2P*<1/2>,3s2 1S<0>,1587,8,,,,,,,,,,,
42,Mo XXXI,Mo,XXXI,30,Molybdenum,Mg,[Ne].3s2,2p6.3s2,1S0,3s 2S<1/2>,1730.1,2.5,,,,,,,,,,,
42,Mo XXXII,Mo,XXXII,31,Molybdenum,Na,[Ne].3s,2p6.3s,2S<1/2>,2p6 1S<0>,1790.93,0.06,,,,,,,,,,,
42,Mo XXXIII,Mo,XXXIII,32,Molybdenum,Ne,1s2.2s2.2p6,2s2.2p6,1S0,2p5 2P*<3/2>,4259,2.4,,,,,,,,,,,
42,Mo XXXIV,Mo,XXXIV,33,Molybdenum,F,1s2.2s2.2p5,2s2.2p5,2P*<3/2>,2p4 3P<2>,4430,7,,,,,,,,,,,
42,Mo XXXV,Mo,XXXV,34,Molybdenum,O,1s2.2s2.2p4,2s2.2p4,3P<2>,"2p2<1/2>.2p<3/2> (0,3/2)*<3/2>",4618,10,,,,,,,,,,,
42,Mo XXXVI,Mo,XXXVI,35,Molybdenum,N,1s2.2s2.2p3,2p2<1/2>.2p<3/2>,"(0,3/2)*<3/2>",2p2 3P<0>,4800,30,,,,,,,,,,,
42,Mo XXXVII,Mo,XXXVII,36,Molybdenum,C,1s2.2s2.2p2,2p2,3P0,2p 2P*<1/2>,5084,6,,,,,,,,,,,
42,Mo XXXVIII,Mo,XXXVIII,37,Molybdenum,B,1s2.2s2.2p,2s2.2p,2P*<1/2>,2s2 1S<0>,5287,4,,,,,,,,,,,
42,Mo XXXIX,Mo,XXXIX,38,Molybdenum,Be,1s2.2s2,1s2.2s2,1S0,2s 2S<1/2>,5548,5,,,,,,,,,,,
42,Mo XL,Mo,XL,39,Molybdenum,Li,1s2.2s,1s2.2s,2S<1/2>,1s2 1S<0>,5713.194,0.016,,,,,,,,,,,
42,Mo XLI,Mo,XLI,40,Molybdenum,He,1s2,1s2,1S0,1s 2S<1/2>,23810.653,0.009,,,,,,,,,,,
42,Mo XLII,Mo,XLII,41,Molybdenum,H,1s,1s,2S<1/2>,,24572.213,0.004,,,,,,,,,,,
43,Tc I,Tc,I,0,Technetium,Tc,[Kr].4d5.5s2,4d5.5s2,6S<5/2>,4d5.5s 7S<3>,7.11938,0.00003,,,,,,,,,,,
43,Tc II,Tc,II,1,Technetium,Mo,[Kr].4d5.5s,4d5.(6S).5s,7S<3>,4d5 6S<5/2>,15.26,,,,,,,,,,,,
43,Tc III,Tc,III,2,Technetium,Nb,[Kr].4d5,4d5,6S<5/2>,4d4 5D<0>,29.55,,,,,,,,,,,,
43,Tc IV,Tc,IV,3,Technetium,Zr,[Kr].4d4,4d4,5D0,4d3 4F<3/2>,41,1.7,,,,,,,,,,,