At. num,Sp. Name,Element,Valence,Ion Charge,El. Name,Isoel. Seq.,Ground Shells (a),Ground Config.,Ground Level,Ionized Level,Ionization Energy (b) (eV),Uncertainty (c) (eV),,,,,,,,,,,
30,Zn XXII,Zn,XXII,21,Zinc,F,1s2.2s2.2p5,2s2.2p5,2P*<3/2>,2p4 3P<2>,1961,3,,,,,,,,,,,
30,Zn XXIII,Zn,XXIII,22,Zinc,O,1s2.2s2.2p4,2s2.2p4,3P<2>,2p3 4S*<3/2>,2085,5,,,,,,,,,,,
30,Zn XXIV,Zn,XXIV,23,Zinc,N,1s2.2s2.2p3,2s2.2p3,4S*<3/2>,2p2 3P<0>,2214,8,,,,,,,,,,,
30,Zn XXV,Zn,XXV,24,Zinc,C,1s2.2s2.2p2,2s2.2p2,3P0,2p 2P*<1/2>,2358,1.6,,,,,,,,,,,
30,Zn XXVI,Zn,XXVI,25,Zinc,B,1s2.2s2.2p,2p,2P*<1/2>,2s2 1S<0>,2491.5,1.1,,,,,,,,,,,
30,Zn XXVII,Zn,XXVII,26,Zinc,Be,1s2.2s2,1s2.2s2,1S0,2s 2S<1/2>,2669.9,2.5,,,,,,,,,,,
30,Zn XXVIII,Zn,XXVIII,27,Zinc,Li,1s2.2s,1s2.2s,2S<1/2>,1s2 1S<0>,2781.996,0.007,,,,,,,,,,,
30,Zn XXIX,Zn,XXIX,28,Zinc,He,1s2,1s2,1S0,1s 2S<1/2>,11864.9401,0.0014,,,,,,,,,,,
30,Zn XXX,Zn,XXX,29,Zinc,H,1s,1s,2S<1/2>,,12388.9427,0.0006,,,,,,,,,,,
31,Ga I,Ga,I,0,Gallium,Ga,[Ar].3d10.4s2.4p,3d10.4s2.4p,2P*<1/2>,4s2 1S<0>,5.999302,0.0000012,,,,,,,,,,,
31,Ga II,Ga,II,1,Gallium,Zn,[Ar].3d10.4s2,3d10.4s2,1S0,4s 2S<1/2>,20.51514,0.00012,,,,,,,,,,,
31,Ga III,Ga,III,2,Gallium,Cu,[Ar].3d10.4s,3d10.4s,2S<1/2>,3d10 1S<0>,30.72576,0.00025,,,,,,,,,,,
31,Ga IV,Ga,IV,3,Gallium,Ni,[Ar].3d10,3d10,1S0,3d9 2D<5/2>,63.241,0.009,,,,,,,,,,,
31,Ga V,Ga,V,4,Gallium,Co,[Ar].3d9,3d9,2D<5/2>,3d8 3F<4>,86.01,0.12,,,,,,,,,,,
31,Ga VI,Ga,VI,5,Gallium,Fe,[Ar].3d8,3d8,3F<4>,3d7 4F<9/2>,112.7,1.1,,,,,,,,,,,
31,Ga VII,Ga,VII,6,Gallium,Mn,[Ar].3d7,3d7,4F<9/2>,3d6 5D<4>,140.8,1.4,,,,,,,,,,,
31,Ga VIII,Ga,VIII,7,Gallium,Cr,[Ar].3d6,3d6,5D<4>,3d5 6S<5/2>,169.9,1.7,,,,,,,,,,,
31,Ga IX,Ga,IX,8,Gallium,V,[Ar].3d5,3d5,6S<5/2>,3d4 5D<0>,211,2.2,,,,,,,,,,,
31,Ga X,Ga,X,9,Gallium,Ti,[Ar].3d4,3d4,5D0,3d3 4F<3/2>,244,2.5,,,,,,,,,,,
31,Ga XI,Ga,XI,10,Gallium,Sc,[Ar].3d3,3d3,4F<3/2>,3d2 3F<2>,280,2.4,,,,,,,,,,,
31,Ga XII,Ga,XII,11,Gallium,Ca,[Ar].3d2,3d2,3F<2>,3d 2D<3/2>,319,2.5,,,,,,,,,,,
31,Ga XIII,Ga,XIII,12,Gallium,K,[Ar].3d,3p6.3d,2D<3/2>,3p6 1S<0>,356,3,,,,,,,,,,,
31,Ga XIV,Ga,XIV,13,Gallium,Ar,[Ne].3s2.3p6,3p6,1S0,3p5 2P*<3/2>,471.2,1.4,,,,,,,,,,,
31,Ga XV,Ga,XV,14,Gallium,Cl,[Ne].3s2.3p5,3p5,2P*<3/2>,3p4 3P<2>,508.8,0.4,,,,,,,,,,,
31,Ga XVI,Ga,XVI,15,Gallium,S,[Ne].3s2.3p4,3p4,3P<2>,3p3 4S*<3/2>,548.3,0.7,,,,,,,,,,,
31,Ga XVII,Ga,XVII,16,Gallium,P,[Ne].3s2.3p3,3s2.3p3,4S*<3/2>,3p2 3P<0>,599.8,1.4,,,,,,,,,,,
31,Ga XVIII,Ga,XVIII,17,Gallium,Si,[Ne].3s2.3p2,3s2.3p2,3P0,3p 2P*<1/2>,640,1.5,,,,,,,,,,,
31,Ga XIX,Ga,XIX,18,Gallium,Al,[Ne].3s2.3p,3s2.3p,2P*<1/2>,3s2 1S<0>,677,3,,,,,,,,,,,
31,Ga XX,Ga,XX,19,Gallium,Mg,[Ne].3s2,3s2,1S0,3s 2S<1/2>,765.7,0.9,,,,,,,,,,,
31,Ga XXI,Ga,XXI,20,Gallium,Na,[Ne].3s,2p6.3s,2S<1/2>,2p6 1S<0>,807.308,0.025,,,,,,,,,,,
31,Ga XXII,Ga,XXII,21,Gallium,Ne,1s2.2s2.2p6,2s2.2p6,1S0,2p5 2P*<3/2>,2010,1.1,,,,,,,,,,,
31,Ga XXIII,Ga,XXIII,22,Gallium,F,1s2.2s2.2p5,2s2.2p5,2P*<3/2>,2p4 3P<2>,2129,4,,,,,,,,,,,
31,Ga XXIV,Ga,XXIV,23,Gallium,O,1s2.2s2.2p4,2s2.2p4,3P<2>,2p3 4S*<3/2>,2258,5,,,,,,,,,,,
31,Ga XXV,Ga,XXV,24,Gallium,N,1s2.2s2.2p3,2s2.2p3,4S*<3/2>,2p2 3P<0>,2391,18,,,,,,,,,,,
31,Ga XXVI,Ga,XXVI,25,Gallium,C,1s2.2s2.2p2,2s2.2p2,3P0,2p 2P*<1/2>,2543.9,2,,,,,,,,,,,
31,Ga XXVII,Ga,XXVII,26,Gallium,B,1s2.2s2.2p,2s2.2p,2P*<1/2>,2s2 1S<0>,2683,1.4,,,,,,,,,,,
31,Ga XXVIII,Ga,XXVIII,27,Gallium,Be,1s2.2s2,2s2,1S0,2s 2S<1/2>,2868,3,,,,,,,,,,,
31,Ga XXIX,Ga,XXIX,28,Gallium,Li,1s2.2s,1s2.2s,2S<1/2>,1s2 1S<0>,2984.426,0.007,,,,,,,,,,,
31,Ga XXX,Ga,XXX,29,Gallium,He,1s2,1s2,1S0,1s 2S<1/2>,12696.5581,0.0016,,,,,,,,,,,
31,Ga XXXI,Ga,XXXI,30,Gallium,H,1s,1s,2S<1/2>,,13239.5029,0.0007,,,,,,,,,,,
32,Ge I,Ge,I,0,Germanium,Ge,[Ar].3d10.4s2.4p2,4s2.4p2,3P0,4p 2P*<1/2>,7.899435,0.000012,,,,,,,,,,,
32,Ge II,Ge,II,1,Germanium,Ga,[Ar].3d10.4s2.4p,4s2.4p,2P*<1/2>,4s2 1S<0>,15.93461,0.000025,,,,,,,,,,,
32,Ge III,Ge,III,2,Germanium,Zn,[Ar].3d10.4s2,3d10.4s2,1S0,4s 2S<1/2>,34.0576,0.0012,,,,,,,,,,,
32,Ge IV,Ge,IV,3,Germanium,Cu,[Ar].3d10.4s,3d10.4s,2S<1/2>,3d10 1S<0>,45.7155,0.0012,,,,,,,,,,,
32,Ge V,Ge,V,4,Germanium,Ni,[Ar].3d10,3d10,1S0,3d9 2D<5/2>,90.5,0.019,,,,,,,,,,,
32,Ge VI,Ge,VI,5,Germanium,Co,[Ar].3d9,3p6.3d9,2D<5/2>,3d8 3F<4>,115.9,0.12,,,,,,,,,,,
32,Ge VII,Ge,VII,6,Germanium,Fe,[Ar].3d8,3p6.3d8,3F<4>,3d7 4F<9/2>,144.9,1.5,,,,,,,,,,,
32,Ge VIII,Ge,VIII,7,Germanium,Mn,[Ar].3d7,3d7,4F<9/2>,3d6 5D<4>,176.4,1.7,,,,,,,,,,,
32,Ge IX,Ge,IX,8,Germanium,Cr,[Ar].3d6,3d6,5D<4>,3d5 6S<5/2>,212.5,2.1,,,,,,,,,,,
32,Ge X,Ge,X,9,Germanium,V,[Ar].3d5,3d5,6S<5/2>,3d4 5D<0>,252.1,2.2,,,,,,,,,,,
32,Ge XI,Ge,XI,10,Germanium,Ti,[Ar].3d4,3d4,5D0,3d3 4F<3/2>,286,3,,,,,,,,,,,
32,Ge XII,Ge,XII,11,Germanium,Sc,[Ar].3d3,3d3,4F<3/2>,3d2 3F<2>,326,2.5,,,,,,,,,,,
32,Ge XIII,Ge,XIII,12,Germanium,Ca,[Ar].3d2,3d2,3F<2>,3d 2D<3/2>,367,3,,,,,,,,,,,
32,Ge XIV,Ge,XIV,13,Germanium,K,[Ar].3d,3p6.3d,2D<3/2>,3p6 1S<0>,407,3,,,,,,,,,,,
32,Ge XV,Ge,XV,14,Germanium,Ar,[Ne].3s2.3p6,3s2.3p6,1S0,3p5 2P*<3/2>,527.9,1.6,,,,,,,,,,,
32,Ge XVI,Ge,XVI,15,Germanium,Cl,[Ne].3s2.3p5,3s2.3p5,2P*<3/2>,3p4 3P<2>,567.3,0.5,,,,,,,,,,,
32,Ge XVII,Ge,XVII,16,Germanium,S,[Ne].3s2.3p4,3s2.3p4,3P<2>,3p3 4S*<3/2>,609.1,0.8,,,,,,,,,,,
32,Ge XVIII,Ge,XVIII,17,Germanium,P,[Ne].3s2.3p3,3s2.3p3,4S*<3/2>,3p2 3P<0>,662.8,1.9,,,,,,,,,,,
32,Ge XIX,Ge,XIX,18,Germanium,Si,[Ne].3s2.3p2,3s2.3p2,3P0,3p 2P*<1/2>,706.7,1,,,,,,,,,,,
32,Ge XX,Ge,XX,19,Germanium,Al,[Ne].3s2.3p,3s2.3p,2P*<1/2>,3s2 1S<0>,744,3,,,,,,,,,,,
32,Ge XXI,Ge,XXI,20,Germanium,Mg,[Ne].3s2,2p6.3s2,1S0,3s 2S<1/2>,837.1,1,,,,,,,,,,,
32,Ge XXII,Ge,XXII,21,Germanium,Na,[Ne].3s,2p6.3s,2S<1/2>,2p6 1S<0>,880.44,0.03,,,,,,,,,,,
32,Ge XXIII,Ge,XXIII,22,Germanium,Ne,1s2.2s2.2p6,2s2.2p6,1S0,2p5 2P*<3/2>,2178.2,0.4,,,,,,,,,,,
32,Ge XXIV,Ge,XXIV,23,Germanium,F,1s2.2s2.2p5,2s2.2p5,2P*<3/2>,2p4 3P<2>,2304,4,,,,,,,,,,,
32,Ge XXV,Ge,XXV,24,Germanium,O,1s2.2s2.2p4,2s2.2p4,3P<2>,2p3 4S*<3/2>,2439,5,,,,,,,,,,,
32,Ge XXVI,Ge,XXVI,25,Germanium,N,1s2.2s2.2p3,2s2.2p3,4S*<3/2>,2p2 3P<0>,2575,19,,,,,,,,,,,
32,Ge XXVII,Ge,XXVII,26,Germanium,C,1s2.2s2.2p2,2s2.2p2,3P0,2p 2P*<1/2>,2737.1,2.3,,,,,,,,,,,
32,Ge XXVIII,Ge,XXVIII,27,Germanium,B,1s2.2s2.2p,2s2.2p,2P*<1/2>,2s2 1S<0>,2881.9,1.6,,,,,,,,,,,
32,Ge XXIX,Ge,XXIX,28,Germanium,Be,1s2.2s2,1s2.2s2,1S0,2s 2S<1/2>,3074,3,,,,,,,,,,,
32,Ge XXX,Ge,XXX,29,Germanium,Li,1s2.2s,1s2.2s,2S<1/2>,1s2 1S<0>,3194.293,0.007,,,,,,,,,,,
32,Ge XXXI,Ge,XXXI,30,Germanium,He,1s2,1s2,1S0,1s 2S<1/2>,13557.4218,0.0019,,,,,,,,,,,
32,Ge XXXII,Ge,XXXII,31,Germanium,H,1s,1s,2S<1/2>,,14119.4457,0.0009,,,,,,,,,,,
33,As I,As,I,0,Arsenic,As,[Ar].3d10.4s2.4p3,4s2.4p3,4S*<3/2>,4p2 3P<0>,9.78855,0.00025,,,,,,,,,,,
33,As II,As,II,1,Arsenic,Ge,[Ar].3d10.4s2.4p2,4s2.4p2,3P0,4p 2P*<1/2>,18.5892,0.001,,,,,,,,,,,
33,As III,As,III,2,Arsenic,Ga,[Ar].3d10.4s2.4p,4s2.4p,2P*<1/2>,4s2 1S<0>,28.349,0.012,,,,,,,,,,,
33,As IV,As,IV,3,Arsenic,Zn,[Ar].3d10.4s2,3d10.4s2,1S0,4s 2S<1/2>,50.15,0.06,,,,,,,,,,,
33,As V,As,V,4,Arsenic,Cu,[Ar].3d10.4s,3d10.4s,2S<1/2>,3d10 1S<0>,62.77,0.06,,,,,,,,,,,
33,As VI,As,VI,5,Arsenic,Ni,[Ar].3d10,3d10,1S0,3d9 2D<5/2>,121.19,0.06,,,,,,,,,,,
33,As VII,As,VII,6,Arsenic,Co,[Ar].3d9,3p6.3d9,2D<5/2>,3d8 3F<4>,147,2,,,,,,,,,,,
33,As VIII,As,VIII,7,Arsenic,Fe,[Ar].3d8,3p6.3d8,3F<4>,3d7 4F<9/2>,180,2.1,,,,,,,,,,,
33,As IX,As,IX,8,Arsenic,Mn,[Ar].3d7,3p6.3d7,4F<9/2>,3d6 5D<4>,213,2.2,,,,,,,,,,,
33,As X,As,X,9,Arsenic,Cr,[Ar].3d6,3d6,5D<4>,3d5 6S<5/2>,247,2.2,,,,,,,,,,,
33,As XI,As,XI,10,Arsenic,V,[Ar].3d5,3d5,6S<5/2>,3d4 5D<0>,296,2.4,,,,,,,,,,,
33,As XII,As,XII,11,Arsenic,Ti,[Ar].3d4,3d4,5D0,3d3 4F<3/2>,333,2.5,,,,,,,,,,,
33,As XIII,As,XIII,12,Arsenic,Sc,[Ar].3d3,3d3,4F<3/2>,3d2 3F<2>,375,3,,,,,,,,,,,
33,As XIV,As,XIV,13,Arsenic,Ca,[Ar].3d2,3p6.3d2,3F<2>,3d 2D<3/2>,418,3,,,,,,,,,,,
33,As XV,As,XV,14,Arsenic,K,[Ar].3d,3p6.3d,2D<3/2>,3p6 1S<0>,460,3,,,,,,,,,,,
33,As XVI,As,XVI,15,Arsenic,Ar,[Ne].3s2.3p6,3s2.3p6,1S0,3p5 2P*<3/2>,587.6,1.9,,,,,,,,,,,
33,As XVII,As,XVII,16,Arsenic,Cl,[Ne].3s2.3p5,3s2.3p5,2P*<3/2>,3p4 3P<2>,628.8,0.6,,,,,,,,,,,
33,As XVIII,As,XVIII,17,Arsenic,S,[Ne].3s2.3p4,3s2.3p4,3P<2>,3p3 4S*<3/2>,672.9,0.9,,,,,,,,,,,
33,As XIX,As,XIX,18,Arsenic,P,[Ne].3s2.3p3,3s2.3p3,4S*<3/2>,3p2 3P<0>,728.9,2.2,,,,,,,,,,,
33,As XX,As,XX,19,Arsenic,Si,[Ne].3s2.3p2,3s2.3p2,3P0,3p 2P*<1/2>,774,1.8,,,,,,,,,,,
33,As XXI,As,XXI,20,Arsenic,Al,[Ne].3s2.3p,3s2.3p,2P*<1/2>,3s2 1S<0>,814,4,,,,,,,,,,,
33,As XXII,As,XXII,21,Arsenic,Mg,[Ne].3s2,2p6.3s2,1S0,3s 2S<1/2>,911.7,1.1,,,,,,,,,,,
33,As XXIII,As,XXIII,22,Arsenic,Na,[Ne].3s,2p6.3s,2S<1/2>,2p6 1S<0>,956.79,0.03,,,,,,,,,,,
33,As XXIV,As,XXIV,23,Arsenic,Ne,1s2.2s2.2p6,2s2.2p6,1S0,2p5 2P*<3/2>,2356.9,1.4,,,,,,,,,,,
33,As XXV,As,XXV,24,Arsenic,F,1s2.2s2.2p5,2s2.2p5,2P*<3/2>,2p4 3P<2>,2486,4,,,,,,,,,,,
33,As XXVI,As,XXVI,25,Arsenic,O,1s2.2s2.2p4,2s2.2p4,3P<2>,2p3 4S*<3/2>,2626,6,,,,,,,,,,,
33,As XXVII,As,XXVII,26,Arsenic,N,1s2.2s2.2p3,2s2.2p3,4S*<3/2>,2p2 3P<0>,2766,21,,,,,,,,,,,
33,As XXVIII,As,XXVIII,27,Arsenic,C,1s2.2s2.2p2,2s2.2p2,3P0,2p 2P*<1/2>,2938,3,,,,,,,,,,,
33,As XXIX,As,XXIX,28,Arsenic,B,1s2.2s2.2p,2s2.2p,2P*<1/2>,2s2 1S<0>,3088.1,1.9,,,,,,,,,,,
33,As XXX,As,XXX,29,Arsenic,Be,1s2.2s2,1s2.2s2,1S0,2s 2S<1/2>,3287,3,,,,,,,,,,,
33,As XXXI,As,XXXI,30,Arsenic,Li,1s2.2s,1s2.2s,2S<1/2>,1s2 1S<0>,3411.643,0.007,,,,,,,,,,,
33,As XXXII,As,XXXII,31,Arsenic,He,1s2,1s2,1S0,1s 2S<1/2>,14447.6799,0.0025,,,,,,,,,,,
33,As XXXIII,As,XXXIII,32,Arsenic,H,1s,1s,2S<1/2>,,15028.9251,0.001,,,,,,,,,,,
34,Se I,Se,I,0,Selenium,Se,[Ar].3d10.4s2.4p4,4s2.4p4,3P<2>,4p3 4S*<3/2>,9.752368,0.000006,,,,,,,,,,,
34,Se II,Se,II,1,Selenium,As,[Ar].3d10.4s2.4p3,4s2.4p3,4S*<3/2>,4p2 3P<0>,21.196,0.01,,,,,,,,,,,
34,Se III,Se,III,2,Selenium,Ge,[Ar].3d10.4s2.4p2,4s2.4p2,3P0,4p 2P*<1/2>,31.697,0.019,,,,,,,,,,,
34,Se IV,Se,IV,3,Selenium,Ga,[Ar].3d10.4s2.4p,4s2.4p,2P*<1/2>,4s2 1S<0>,42.947,0.003,,,,,,,,,,,
34,Se V,Se,V,4,Selenium,Zn,[Ar].3d10.4s2,3d10.4s2,1S0,4s 2S<1/2>,68.3,0.1,,,,,,,,,,,
34,Se VI,Se,VI,5,Selenium,Cu,[Ar].3d10.4s,3d10.4s,2S<1/2>,3d10 1S<0>,81.83,0.03,,,,,,,,,,,
34,Se VII,Se,VII,6,Selenium,Ni,[Ar].3d10,3d10,1S0,3d9 2D<5/2>,155.327,0.012,,,,,,,,,,,
34,Se VIII,Se,VIII,7,Selenium,Co,[Ar].3d9,3p6.3d9,2D<5/2>,3d8 3F<4>,184,2.1,,,,,,,,,,,
34,Se IX,Se,IX,8,Selenium,Fe,[Ar].3d8,3p6.3d8,3F<4>,3d7 4F<9/2>,219,2.2,,,,,,,,,,,
34,Se X,Se,X,9,Selenium,Mn,[Ar].3d7,3p6.3d7,4F<9/2>,3d6 5D<4>,255,2.2,,,,,,,,,,,
34,Se XI,Se,XI,10,Selenium,Cr,[Ar].3d6,3d6,5D<4>,3d5 6S<5/2>,291,2.4,,,,,,,,,,,
34,Se XII,Se,XII,11,Selenium,V,[Ar].3d5,3d5,6S<5/2>,3d4 5D<0>,342.9,2.5,,,,,,,,,,,
34,Se XIII,Se,XIII,12,Selenium,Ti,[Ar].3d4,3d4,5D0,3d3 4F<3/2>,383,3,,,,,,,,,,,
34,Se XIV,Se,XIV,13,Selenium,Sc,[Ar].3d3,3d3,4F<3/2>,3d2 3F<2>,426,3,,,,,,,,,,,
34,Se XV,Se,XV,14,Selenium,Ca,[Ar].3d2,3p6.3d2,3F<2>,3d 2D<3/2>,473,3,,,,,,,,,,,
34,Se XVI,Se,XVI,15,Selenium,K,[Ar].3d,3p6.3d,2D<3/2>,3p6 1S<0>,517,3,,,,,,,,,,,
34,Se XVII,Se,XVII,16,Selenium,Ar,[Ne].3s2.3p6,3s2.3p6,1S0,3p5 2P*<3/2>,650.5,2.1,,,,,,,,,,,
34,Se XVIII,Se,XVIII,17,Selenium,Cl,[Ne].3s2.3p5,3s2.3p5,2P*<3/2>,3p4 3P<2>,693.4,0.7,,,,,,,,,,,
34,Se XIX,Se,XIX,18,Selenium,S,[Ne].3s2.3p4,3s2.3p4,3P<2>,3p3 4S*<3/2>,739.8,1.1,,,,,,,,,,,
34,Se XX,Se,XX,19,Selenium,P,[Ne].3s2.3p3,3s2.3p3,4S*<3/2>,3p2 3P<0>,798,3,,,,,,,,,,,
34,Se XXI,Se,XXI,20,Selenium,Si,[Ne].3s2.3p2,3s2.3p2,3P0,3p 2P*<1/2>,845.8,2,,,,,,,,,,,
34,Se XXII,Se,XXII,21,Selenium,Al,[Ne].3s2.3p,3s2.3p,2P*<1/2>,3s2 1S<0>,887,4,,,,,,,,,,,
34,Se XXIII,Se,XXIII,22,Selenium,Mg,[Ne].3s2,2p6.3s2,1S0,3s 2S<1/2>,989.6,1.3,,,,,,,,,,,
34,Se XXIV,Se,XXIV,23,Selenium,Na,[Ne].3s,2p6.3s,2S<1/2>,2p6 1S<0>,1036.36,0.03,,,,,,,,,,,
34,Se XXV,Se,XXV,24,Selenium,Ne,1s2.2s2.2p6,2s2.2p6,1S0,2p5 2P*<3/2>,2540.7,1.4,,,,,,,,,,,
34,Se XXVI,Se,XXVI,25,Selenium,F,1s2.2s2.2p5,2s2.2p5,2P*<3/2>,2p4 3P<2>,2674,5,,,,,,,,,,,
34,Se XXVII,Se,XXVII,26,Selenium,O,1s2.2s2.2p4,2s2.2p4,3P<2>,2p3 4S*<3/2>,2820,6,,,,,,,,,,,
34,Se XXVIII,Se,XXVIII,27,Selenium,N,1s2.2s2.2p3,2s2.2p3,4S*<3/2>,2p2 3P<0>,2964,22,,,,,,,,,,,
34,Se XXIX,Se,XXIX,28,Selenium,C,1s2.2s2.2p2,2s2.2p2,3P0,2p 2P*<1/2>,3146,3,,,,,,,,,,,
34,Se XXX,Se,XXX,29,Selenium,B,1s2.2s2.2p,2s2.2p,2P*<1/2>,2s2 1S<0>,3301.8,2.1,,,,,,,,,,,
34,Se XXXI,Se,XXXI,30,Selenium,Be,1s2.2s2,1s2.2s2,1S0,2s 2S<1/2>,3507,3,,,,,,,,,,,
34,Se XXXII,Se,XXXII,31,Selenium,Li,1s2.2s,1s2.2s,2S<1/2>,1s2 1S<0>,3636.526,0.007,,,,,,,,,,,
34,Se XXXIII,Se,XXXIII,32,Selenium,He,1s2,1s2,1S0,1s 2S<1/2>,15367.493,0.003,,,,,,,,,,,
34,Se XXXIV,Se,XXXIV,33,Selenium,H,1s,1s,2S<1/2>,,15968.1075,0.0012,,,,,,,,,,,
35,Br I,Br,I,0,Bromine,Br,[Ar].3d10.4s2.4p5,4s2.4p5,2P*<3/2>,4p4 3P<2>,11.81381,0.00006,,,,,,,,,,,
35,Br II,Br,II,1,Bromine,Se,[Ar].3d10.4s2.4p4,4s2.4p4,3P<2>,4p3 4S*<3/2>,21.591,,,,,,,,,,,,
35,Br III,Br,III,2,Bromine,As,[Ar].3d10.4s2.4p3,4s2.4p3,4S*<3/2>,4p2 3P<0>,34.871,0.019,,,,,,,,,,,
35,Br IV,Br,IV,3,Bromine,Ge,[Ar].3d10.4s2.4p2,4s2.4p2,3P0,4p 2P*<1/2>,47.782,0.012,,,,,,,,,,,
35,Br V,Br,V,4,Bromine,Ga,[Ar].3d10.4s2.4p,4s2.4p,2P*<1/2>,4s2 1S<0>,59.595,0.025,,,,,,,,,,,
35,Br VI,Br,VI,5,Bromine,Zn,[Ar].3d10.4s2,3d10.4s2,1S0,4s 2S<1/2>,87.39,0.025,,,,,,,,,,,
35,Br VII,Br,VII,6,Bromine,Cu,[Ar].3d10.4s,3d10.4s,2S<1/2>,3d10 1S<0>,103.03,0.19,,,,,,,,,,,
35,Br VIII,Br,VIII,7,Bromine,Ni,[Ar].3d10,3d10,1S0,3d9 2D<5/2>,192.61,0.06,,,,,,,,,,,
35,Br IX,Br,IX,8,Bromine,Co,[Ar].3d9,3p6.3d9,2D<5/2>,3d8 3F<4>,224,2.2,,,,,,,,,,,
35,Br X,Br,X,9,Bromine,Fe,[Ar].3d8,3p6.3d8,3F<4>,3d7 4F<9/2>,261,2.2,,,,,,,,,,,
35,Br XI,Br,XI,10,Bromine,Mn,[Ar].3d7,3p6.3d7,4F<9/2>,3d6 5D<4>,301,2.4,,,,,,,,,,,
35,Br XII,Br,XII,11,Bromine,Cr,[Ar].3d6,3d6,5D<4>,3d5 6S<5/2>,338,2.5,,,,,,,,,,,
35,Br XIII,Br,XIII,12,Bromine,V,[Ar].3d5,3d5,6S<5/2>,3d4 5D<0>,393,3,,,,,,,,,,,
35,Br XIV,Br,XIV,13,Bromine,Ti,[Ar].3d4,3d4,5D0,3d3 4F<3/2>,436,3,,,,,,,,,,,
35,Br XV,Br,XV,14,Bromine,Sc,[Ar].3d3,3d3,4F<3/2>,3d2 3F<2>,481,3,,,,,,,,,,,
35,Br XVI,Br,XVI,15,Bromine,Ca,[Ar].3d2,3p6.3d2,3F<2>,3d 2D<3/2>,530,3,,,,,,,,,,,
35,Br XVII,Br,XVII,16,Bromine,K,[Ar].3d,3p6.3d,2D<3/2>,3p6 1S<0>,577,3,,,,,,,,,,,
35,Br XVIII,Br,XVIII,17,Bromine,Ar,[Ne].3s2.3p6,3s2.3p6,1S0,3p5 2P*<3/2>,716.3,2.3,,,,,,,,,,,
35,Br XIX,Br,XIX,18,Bromine,Cl,[Ne].3s2.3p5,3s2.3p5,2P*<3/2>,3p4 3P<2>,761,0.8,,,,,,,,,,,
35,Br XX,Br,XX,19,Bromine,S,[Ne].3s2.3p4,3s2.3p4,3P<2>,3p3 4S*<3/2>,809.8,1.2,,,,,,,,,,,
35,Br XXI,Br,XXI,20,Bromine,P,[Ne].3s2.3p3,3s2.3p3,4S*<3/2>,3p2 3P<0>,870,3,,,,,,,,,,,
35,Br XXII,Br,XXII,21,Bromine,Si,[Ne].3s2.3p2,3s2.3p2,3P0,3p 2P*<1/2>,920.8,2.2,,,,,,,,,,,
35,Br XXIII,Br,XXIII,22,Bromine,Al,[Ne].3s2.3p,3s2.3p,2P*<1/2>,3s2 1S<0>,963,5,,,,,,,,,,,
35,Br XXIV,Br,XXIV,23,Bromine,Mg,[Ne].3s2,3s2,1S0,3s 2S<1/2>,1070.6,1.4,,,,,,,,,,,
35,Br XXV,Br,XXV,24,Bromine,Na,[Ne].3s,2p6.3s,2S<1/2>,2p6 1S<0>,1119.17,0.04,,,,,,,,,,,
35,Br XXVI,Br,XXVI,25,Bromine,Ne,1s2.2s2.2p6,2s2.2p6,1S0,2p5 2P*<3/2>,2731.4,1.5,,,,,,,,,,,
35,Br XXVII,Br,XXVII,26,Bromine,F,1s2.2s2.2p5,2s2.2p5,2P*<3/2>,2p4 3P<2>,2869,5,,,,,,,,,,,
35,Br XXVIII,Br,XXVIII,27,Bromine,O,1s2.2s2.2p4,2s2.2p4,3P<2>,2p3 4S*<3/2>,3021,7,,,,,,,,,,,
35,Br XXIX,Br,XXIX,28,Bromine,N,1s2.2s2.2p3,2s2.2p3,4S*<3/2>,2p2 3P<0>,3169,24,,,,,,,,,,,
35,Br XXX,Br,XXX,29,Bromine,C,1s2.2s2.2p2,2s2.2p2,3P0,2p 2P*<1/2>,3361,3,,,,,,,,,,,
35,Br XXXI,Br,XXXI,30,Bromine,B,1s2.2s2.2p,2s2.2p,2P*<1/2>,2s2 1S<0>,3523.1,2.2,,,,,,,,,,,
35,Br XXXII,Br,XXXII,31,Bromine,Be,1s2.2s2,1s2.2s2,1S0,2s 2S<1/2>,3735,4,,,,,,,,,,,
35,Br XXXIII,Br,XXXIII,32,Bromine,Li,1s2.2s,1s2.2s,2S<1/2>,1s2 1S<0>,3868.986,0.007,,,,,,,,,,,
35,Br XXXIV,Br,XXXIV,33,Bromine,He,1s2,1s2,1S0,1s 2S<1/2>,16317.014,0.004,,,,,,,,,,,
35,Br XXXV,Br,XXXV,34,Bromine,H,1s,1s,2S<1/2>,,16937.1497,0.0015,,,,,,,,,,,
36,Kr I,Kr,I,0,Krypton,Kr,[Ar].3d10.4s2.4p6,4s2.4p6,1S0,4p5 2P*<3/2>,13.9996055,0.000002,,,,,,,,,,,
36,Kr II,Kr,II,1,Krypton,Br,[Ar].3d10.4s2.4p5,4s2.4p5,2P*<3/2>,4p4 3P<2>,24.35984,0.00012,,,,,,,,,,,
36,Kr III,Kr,III,2,Krypton,Se,[Ar].3d10.4s2.4p4,4s2.4p4,3P<2>,4p3 4S*<3/2>,35.838,0.02,,,,,,,,,,,
36,Kr IV,Kr,IV,3,Krypton,As,[Ar].3d10.4s2.4p3,4s2.4p3,4S*<3/2>,4p2 3P<0>,50.85,0.11,,,,,,,,,,,
36,Kr V,Kr,V,4,Krypton,Ge,[Ar].3d10.4s2.4p2,4s2.4p2,3P0,4p 2P*<1/2>,64.69,0.2,,,,,,,,,,,
36,Kr VI,Kr,VI,5,Krypton,Ga,[Ar].3d10.4s2.4p,4s2.4p,2P*<1/2>,4s2 1S<0>,78.49,0.2,,,,,,,,,,,
36,Kr VII,Kr,VII,6,Krypton,Zn,[Ar].3d10.4s2,4s2,1S0,4s 2S<1/2>,109.13,0.05,,,,,,,,,,,
36,Kr VIII,Kr,VIII,7,Krypton,Cu,[Ar].3d10.4s,3d10.4s,2S<1/2>,3d10 1S<0>,125.802,0.003,,,,,,,,,,,
36,Kr IX,Kr,IX,8,Krypton,Ni,[Ar].3d10,3d10,1S0,3d9 2D<5/2>,233,0.7,,,,,,,,,,,
36,Kr X,Kr,X,9,Krypton,Co,[Ar].3d9,3p6.3d9,2D<5/2>,3d8 3F<4>,268,3,,,,,,,,,,,
36,Kr XI,Kr,XI,10,Krypton,Fe,[Ar].3d8,3d8,3F<4>,3d7 4F<9/2>,308,3,,,,,,,,,,,
36,Kr XII,Kr,XII,11,Krypton,Mn,[Ar].3d7,3d7,4F<9/2>,3d6 5D<4>,350,3,,,,,,,,,,,
36,Kr XIII,Kr,XIII,12,Krypton,Cr,[Ar].3d6,3d6,5D<4>,3d5 6S<5/2>,391,4,,,,,,,,,,,
36,Kr XIV,Kr,XIV,13,Krypton,V,[Ar].3d5,3d5,6S<5/2>,3d4 5D<0>,446,3,,,,,,,,,,,
36,Kr XV,Kr,XV,14,Krypton,Ti,[Ar].3d4,3d4,5D0,3d3 4F<3/2>,492,5,,,,,,,,,,,
36,Kr XVI,Kr,XVI,15,Krypton,Sc,[Ar].3d3,3d3,4F<3/2>,3d2 3F<2>,540,3,,,,,,,,,,,
36,Kr XVII,Kr,XVII,16,Krypton,Ca,[Ar].3d2,3d2,3F<2>,3d 2D<3/2>,591,3,,,,,,,,,,,
36,Kr XVIII,Kr,XVIII,17,Krypton,K,[Ar].3d,3p6.3d,2D<3/2>,3p6 1S<0>,640,3,,,,,,,,,,,
36,Kr XIX,Kr,XIX,18,Krypton,Ar,[Ne].3s2.3p6,3s2.3p6,1S0,3s2.3p5 2P*<3/2>,785.316,0.012,,,,,,,,,,,
36,Kr XX,Kr,XX,19,Krypton,Cl,[Ne].3s2.3p5,3s2.3p5,2P*<3/2>,3s2.3p4 3P<2>,831.6,0.9,,,,,,,,,,,
36,Kr XXI,Kr,XXI,20,Krypton,S,[Ne].3s2.3p4,3s2.3p4,3P<2>,3s2.3p3 4S*<3/2>,882.8,1.3,,,,,,,,,,,
36,Kr XXII,Kr,XXII,21,Krypton,P,[Ne].3s2.3p3,3s2.3p3,4S*<3/2>,3s2.3p2 3P<0>,945,3,,,,,,,,,,,
36,Kr XXIII,Kr,XXIII,22,Krypton,Si,[Ne].3s2.3p2,3s2.3p2,3P0,3p 2P*<1/2>,999,2.4,,,,,,,,,,,
36,Kr XXIV,Kr,XXIV,23,Krypton,Al,[Ne].3s2.3p,3s2.3p,2P*<1/2>,3s2 1S<0>,1042,5,,,,,,,,,,,
36,Kr XXV,Kr,XXV,24,Krypton,Mg,[Ne].3s2,2p6.3s2,1S0,2p6.3s 2S<1/2>,1155,1.6,,,,,,,,,,,
36,Kr XXVI,Kr,XXVI,25,Krypton,Na,[Ne].3s,2p6.3s,2S<1/2>,2p6 1S<0>,1205.23,0.04,,,,,,,,,,,
36,Kr XXVII,Kr,XXVII,26,Krypton,Ne,1s2.2s2.2p6,2s2.2p6,1S0,2p5 2P*<3/2>,2928.9,1.7,,,,,,,,,,,
36,Kr XXVIII,Kr,XXVIII,27,Krypton,F,1s2.2s2.2p5,2s2.2p5,2P*<3/2>,2p4 3P<2>,3072,5,,,,,,,,,,,
36,Kr XXIX,Kr,XXIX,28,Krypton,O,1s2.2s2.2p4,2s2.2p4,3P<2>,2p3 4S*<3/2>,3228,7,,,,,,,,,,,
36,Kr XXX,Kr,XXX,29,Krypton,N,1s2.2s2.2p3,2s2.2p3,4S*<3/2>,2p2 3P<0>,3380,30,,,,,,,,,,,
36,Kr XXXI,Kr,XXXI,30,Krypton,C,1s2.2s2.2p2,2s2.2p2,3P0,2p 2P*<1/2>,3584,4,,,,,,,,,,,
36,Kr XXXII,Kr,XXXII,31,Krypton,B,1s2.2s2.2p,2s2.2p,2P*<1/2>,2s2 1S<0>,3752,2.5,,,,,,,,,,,
36,Kr XXXIII,Kr,XXXIII,32,Krypton,Be,1s2.2s2,2s2,1S0,2s 2S<1/2>,3971,4,,,,,,,,,,,
36,Kr XXXIV,Kr,XXXIV,33,Krypton,Li,1s2.2s,1s2.2s,2S<1/2>,1s2 1S<0>,4109.083,0.009,,,,,,,,,,,
36,Kr XXXV,Kr,XXXV,34,Krypton,He,1s2,1s2,1S0,1s 2S<1/2>,17296.424,0.004,,,,,,,,,,,
36,Kr XXXVI,Kr,XXXVI,35,Krypton,H,1s,1s,2S<1/2>,,17936.2405,0.0016,,,,,,,,,,,
37,Rb I,Rb,I,0,Rubidium,Rb,[Kr].5s,4p6.5s,2S<1/2>,4p6 1S<0>,4.1771281,0.0000012,,,,,,,,,,,
37,Rb II,Rb,II,1,Rubidium,Kr,[Ar].3d10.4s2.4p6,4p6,1S0,4p5 2P*<3/2>,27.28954,0.00006,,,,,,,,,,,
37,Rb III,Rb,III,2,Rubidium,Br,[Ar].3d10.4s2.4p5,4s2.4p5,2P*<3/2>,4p4 3P<2>,39.247,0.003,,,,,,,,,,,
37,Rb IV,Rb,IV,3,Rubidium,Se,[Ar].3d10.4s2.4p4,4s2.4p4,3P<2>,4p3 4S*<3/2>,52.2,0.25,,,,,,,,,,,
37,Rb V,Rb,V,4,Rubidium,As,[Ar].3d10.4s2.4p3,4s2.4p3,4S*<3/2>,4p2 3P<0>,68.44,0.15,,,,,,,,,,,
37,Rb VI,Rb,VI,5,Rubidium,Ge,[Ar].3d10.4s2.4p2,4s2.4p2,3P0,4p 2P*<1/2>,82.9,2,,,,,,,,,,,
37,Rb VII,Rb,VII,6,Rubidium,Ga,[Ar].3d10.4s2.4p,4s2.4p,2P*<1/2>,4s2 1S<0>,98.67,0.04,,,,,,,,,,,
37,Rb VIII,Rb,VIII,7,Rubidium,Zn,[Ar].3d10.4s2,4s2,1S0,4s 2S<1/2>,132.79,0.25,,,,,,,,,,,
37,Rb IX,Rb,IX,8,Rubidium,Cu,[Ar].3d10.4s,3d10.4s,2S<1/2>,3d10 1S<0>,150.628,0.025,,,,,,,,,,,
37,Rb X,Rb,X,9,Rubidium,Ni,[Ar].3d10,3d10,1S0,3d9 2D<5/2>,277.12,0.12,,,,,,,,,,,
37,Rb XI,Rb,XI,10,Rubidium,Co,[Ar].3d9,3d9,2D<5/2>,3d8 3F<4>,313.1,2.4,,,,,,,,,,,
37,Rb XII,Rb,XII,11,Rubidium,Fe,[Ar].3d8,3p6.3d8,3F<4>,3d7 4F<9/2>,356,2.5,,,,,,,,,,,
37,Rb XIII,Rb,XIII,12,Rubidium,Mn,[Ar].3d7,3p6.3d7,4F<9/2>,3d6 5D<4>,400,3,,,,,,,,,,,
37,Rb XIV,Rb,XIV,13,Rubidium,Cr,[Ar].3d6,3d6,5D<4>,3d5 6S<5/2>,443,3,,,,,,,,,,,
37,Rb XV,Rb,XV,14,Rubidium,V,[Ar].3d5,3d5,6S<5/2>,3d4 5D<0>,502,3,,,,,,,,,,,
37,Rb XVI,Rb,XVI,15,Rubidium,Ti,[Ar].3d4,3d4,5D0,3d3 4F<3/2>,550,3,,,,,,,,,,,