At. num,Sp. Name,Element,Valence,Ion Charge,El. Name,Isoel. Seq.,Ground Shells (a),Ground Config.,Ground Level,Ionized Level,Ionization Energy (b) (eV),Uncertainty (c) (eV),,,,,,,,,,,
95,Am LXXI,Am,LXXI,70,Americium,Mn,[Ar].3d7,3d7,4F<9/2>,"3d-4.3d+2 (0,4)<4>",8590,60,,,,,,,,,,,
95,Am LXXII,Am,LXXII,71,Americium,Cr,[Ar].3d6,3d-4.3d+2,"(0,4)<4>","3d-4.3d+ (0,5/2)<5/2>",8770,60,,,,,,,,,,,
95,Am LXXIII,Am,LXXIII,72,Americium,V,[Ar].3d5,3d-4.3d+,"(0,5/2)<5/2>",3d4 5D<0>,8950,70,,,,,,,,,,,
95,Am LXXIV,Am,LXXIV,73,Americium,Ti,[Ar].3d4,3d4,5D0,3d3 4F<3/2>,9380,90,,,,,,,,,,,
95,Am LXXV,Am,LXXV,74,Americium,Sc,[Ar].3d3,3d3,4F<3/2>,3d2 3F<2>,9560,90,,,,,,,,,,,
95,Am LXXVI,Am,LXXVI,75,Americium,Ca,[Ar].3d2,3d2,3F<2>,3d 2D<3/2>,9770,100,,,,,,,,,,,
95,Am LXXVII,Am,LXXVII,76,Americium,K,[Ar].3d,3d,2D<3/2>,3p6 1S<0>,9960,110,,,,,,,,,,,
95,Am LXXVIII,Am,LXXVIII,77,Americium,Ar,[Ne].3s2.3p6,3p6,1S0,3p5 2P*<3/2>,10490,120,,,,,,,,,,,
95,Am LXXIX,Am,LXXIX,78,Americium,Cl,[Ne].3s2.3p5,3p5,2P*<3/2>,3p4 3P<2>,10650,120,,,,,,,,,,,
95,Am LXXX,Am,LXXX,79,Americium,S,[Ne].3s2.3p4,3p4,3P<2>,3p3 2P*<3/2>,10830,140,,,,,,,,,,,
95,Am LXXXI,Am,LXXXI,80,Americium,P,[Ne].3s2.3p3,3p3,2P*<3/2>,3p2 3P<0>,11000,150,,,,,,,,,,,
95,Am LXXXII,Am,LXXXII,81,Americium,Si,[Ne].3s2.3p2,3p2,3P0,3p 2P*<1/2>,12400,160,,,,,,,,,,,
95,Am LXXXIII,Am,LXXXIII,82,Americium,Al,[Ne].3s2.3p,3p,2P*<1/2>,3s2 1S<0>,12600,170,,,,,,,,,,,
95,Am LXXXIV,Am,LXXXIV,83,Americium,Mg,[Ne].3s2,3s2,1S0,3s 2S<1/2>,13000,190,,,,,,,,,,,
95,Am LXXXV,Am,LXXXV,84,Americium,Na,[Ne].3s,3s,2S<1/2>,2p6 1S<0>,13190,200,,,,,,,,,,,
95,Am LXXXVI,Am,LXXXVI,85,Americium,Ne,1s2.2s2.2p6,2p6,1S0,2p5 2P*<3/2>,27110,220,,,,,,,,,,,
95,Am LXXXVII,Am,LXXXVII,86,Americium,F,1s2.2s2.2p5,2p5,2P*<3/2>,2p4 3P<2>,27550,240,,,,,,,,,,,
95,Am LXXXVIII,Am,LXXXVIII,87,Americium,O,1s2.2s2.2p4,2p4,3P<2>,"2p2<1/2>.2p<3/2> (0,3/2)*<3/2>",28040,250,,,,,,,,,,,
95,Am LXXXIX,Am,LXXXIX,88,Americium,N,1s2.2s2.2p3,2p2<1/2>.2p<3/2>,"(0,3/2)*<3/2>",2p2 3P<0>,28500,300,,,,,,,,,,,
95,Am XC,Am,XC,89,Americium,C,1s2.2s2.2p2,2p2,3P0,2p 2P*<1/2>,33700,300,,,,,,,,,,,
95,Am XCI,Am,XCI,90,Americium,B,1s2.2s2.2p,2p,2P*<1/2>,2s2 1S<0>,34300,300,,,,,,,,,,,
95,Am XCII,Am,XCII,91,Americium,Be,1s2.2s2,2s2,1S0,2s 2S<1/2>,35100,300,,,,,,,,,,,
95,Am XCIII,Am,XCIII,92,Americium,Li,1s2.2s,1s2.2s,2S<1/2>,1s2 1S<0>,35549.4,0.7,,,,,,,,,,,
95,Am XCIV,Am,XCIV,93,Americium,He,1s2,1s2,1S0,1s 2S<1/2>,139769.5,0.7,,,,,,,,,,,
95,Am XCV,Am,XCV,94,Americium,H,1s,1s,2S<1/2>,,142153.5,0.9,,,,,,,,,,,
96,Cm I,Cm,I,0,Curium,Cm,[Rn].5f7.6d.7s2,5f7.6d.7s2,9D*<2>,5f7.7s2 8S*<7/2>,5.992241,0.00002,,,,,,,,,,,
96,Cm II,Cm,II,1,Curium,Am,[Rn].5f7.7s2,5f7.7s2,8S*<7/2>,5f8 7F<6>,12.4,0.4,,,,,,,,,,,
96,Cm III,Cm,III,2,Curium,Pu,[Rn].5f8,5f8,7F<6>,5f7 8S*<7/2>,20.1,0.4,,,,,,,,,,,
96,Cm IV,Cm,IV,3,Curium,Np,[Rn].5f7,5f7,8S*<7/2>,5f6 7F<0>,37.7,0.4,,,,,,,,,,,
96,Cm V,Cm,V,4,Curium,U,[Rn].5f6,5f6,7F0,5f5 6H*<5/2>,51,1.9,,,,,,,,,,,
96,Cm VI,Cm,VI,5,Curium,Pa,[Rn].5f5,5f5,6H*<5/2>,5f4 5I<4>,69.1,2,,,,,,,,,,,
96,Cm VII,Cm,VII,6,Curium,Th,[Rn].5f4,5f4,5I<4>,5f5.6p4,97,5,,,,,,,,,,,
96,Cm VIII,Cm,VIII,7,Curium,Ac,[Hg].5f5.6p4,5f5.6p4,*,5f5.6p3,112,6,,,,,,,,,,,
96,Cm IX,Cm,IX,8,Curium,Ra,[Hg].5f5.6p3,5f5.6p3,,5f5.6p2*,128,6,,,,,,,,,,,
96,Cm X,Cm,X,9,Curium,Fr,[Hg].5f5.6p2,5f5.6p2,*,5f4.6p2,144,7,,,,,,,,,,,
96,Cm XI,Cm,XI,10,Curium,Rn,[Hg].5f4.6p2,5f4.6p2,,5f3.6p2*,167,8,,,,,,,,,,,
96,Cm XII,Cm,XII,11,Curium,At,[Hg].5f3.6p2,5f3.6p2,*,5f2.6p2,190,10,,,,,,,,,,,
96,Cm XIII,Cm,XIII,12,Curium,Po,[Hg].5f2.6p2,5f2.6p2,,5f.6p2*,213,11,,,,,,,,,,,
96,Cm XIV,Cm,XIV,13,Curium,Bi,[Hg].5f.6p2,5f.6p2,*,5f.6p,235,12,,,,,,,,,,,
96,Cm XV,Cm,XV,14,Curium,Pb,[Hg].5f.6p,5f.6p,,5f 2F*<5/2>,253,12,,,,,,,,,,,
96,Cm XVI,Cm,XVI,15,Curium,Tl,[Hg].5f,5f,2F*<5/2>,6s2 1S<0>,272,14,,,,,,,,,,,
96,Cm XVII,Cm,XVII,16,Curium,Hg,[Xe].4f14.5d10.6s2,6s2,1S0,6s 2S<1/2>,311,3,,,,,,,,,,,
96,Cm XVIII,Cm,XVIII,17,Curium,Au,[Xe].4f14.5d10.6s,6s,2S<1/2>,5d10 1S<0>,332,3,,,,,,,,,,,
96,Cm XIX,Cm,XIX,18,Curium,Pt,[Xe].4f14.5d10,5d10,1S0,5d9 2D<5/2>,460,3,,,,,,,,,,,
96,Cm XX,Cm,XX,19,Curium,Ir,[Xe].4f14.5d9,5d9,2D<5/2>,5d8 3F<4>,489,4,,,,,,,,,,,
96,Cm XXI,Cm,XXI,20,Curium,Os,[Xe].4f14.5d8,5d8,3F<4>,5d7 4F<9/2>,518,4,,,,,,,,,,,
96,Cm XXII,Cm,XXII,21,Curium,Re,[Xe].4f14.5d7,5d7,4F<9/2>,5d6 5D<4>,550,4,,,,,,,,,,,
96,Cm XXIII,Cm,XXIII,22,Curium,W,[Xe].4f14.5d6,5d6,5D<4>,5d5 6S<5/2>,580,4,,,,,,,,,,,
96,Cm XXIV,Cm,XXIV,23,Curium,Ta,[Xe].4f14.5d5,5d5,6S<5/2>,5d4 5D<0>,611,4,,,,,,,,,,,
96,Cm XXV,Cm,XXV,24,Curium,Hf,[Xe].4f14.5d4,5d4,5D0,5d3 4F<3/2>,657,4,,,,,,,,,,,
96,Cm XXVI,Cm,XXVI,25,Curium,Lu,[Xe].4f14.5d3,5d3,4F<3/2>,5d2 3F<2>,689,4,,,,,,,,,,,
96,Cm XXVII,Cm,XXVII,26,Curium,Yb,[Xe].4f14.5d2,5d2,3F<2>,5d 2D<3/2>,723,4,,,,,,,,,,,
96,Cm XXVIII,Cm,XXVIII,27,Curium,Tm,[Xe].4f14.5d,5d,2D<3/2>,4f14 1S<0>,755,4,,,,,,,,,,,
96,Cm XXIX,Cm,XXIX,28,Curium,Er,[Xe].4f14,4f14,1S0,4f14.5p5 2P*<3/2>,910,50,,,,,,,,,,,
96,Cm XXX,Cm,XXX,29,Curium,Ho,[Cd].4f14.5p5,4f14.5p5,2P*<3/2>,4f14.5p4 3P<2>,950,50,,,,,,,,,,,
96,Cm XXXI,Cm,XXXI,30,Curium,Dy,[Cd].4f14.5p4,4f14.5p4,3P<2>,4f14.5p3 2P*<3/2>,990,50,,,,,,,,,,,
96,Cm XXXII,Cm,XXXII,31,Curium,Tb,[Cd].4f14.5p3,4f14.5p3,2P*<3/2>,4f14.5p2 3P<0>,1030,50,,,,,,,,,,,
96,Cm XXXIII,Cm,XXXIII,32,Curium,Gd,[Cd].4f14.5p2,4f14.5p2,3P0,4f14.5p 2P*<1/2>,1140,60,,,,,,,,,,,
96,Cm XXXIV,Cm,XXXIV,33,Curium,Eu,[Cd].4f14.5p,4f14.5p,2P*<1/2>,4f14 1S<0>,1180,60,,,,,,,,,,,
96,Cm XXXV,Cm,XXXV,34,Curium,Sm,[Cd].4f14,4f14,1S0,4f14.5s 2S<1/2>,1300,60,,,,,,,,,,,
96,Cm XXXVI,Cm,XXXVI,35,Curium,Pm,[Kr].4d10.4f14.5s,4f14.5s,2S<1/2>,4f14 1S<0>,1340,70,,,,,,,,,,,
96,Cm XXXVII,Cm,XXXVII,36,Curium,Nd,[Kr].4d10.4f14,4f14,1S0,4f13 2F*<7/2>,1480,70,,,,,,,,,,,
96,Cm XXXVIII,Cm,XXXVIII,37,Curium,Pr,[Kr].4d10.4f13,4f13,2F*<7/2>,4f12,1560,80,,,,,,,,,,,
96,Cm XXXIX,Cm,XXXIX,38,Curium,Ce,[Kr].4d10.4f12,4f12,,4f11 4I*<15/2>,1650,80,,,,,,,,,,,
96,Cm XL,Cm,XL,39,Curium,La,[Kr].4d10.4f11,4f11,4I*<15/2>,4f10 5I<8>,1730,90,,,,,,,,,,,
96,Cm XLI,Cm,XLI,40,Curium,Ba,[Kr].4d10.4f10,4f10,5I<8>,4f9 6H*<15/2>,1810,90,,,,,,,,,,,
96,Cm XLII,Cm,XLII,41,Curium,Cs,[Kr].4d10.4f9,4f9,6H*<15/2>,4f8 7F<6>,1890,90,,,,,,,,,,,
96,Cm XLIII,Cm,XLIII,42,Curium,Xe,[Kr].4d10.4f8,4f8,7F<6>,4f7 8S*<7/2>,1980,100,,,,,,,,,,,
96,Cm XLIV,Cm,XLIV,43,Curium,I,[Kr].4d10.4f7,4f7,8S*<7/2>,4f6 7F<0>,2060,100,,,,,,,,,,,
96,Cm XLV,Cm,XLV,44,Curium,Te,[Kr].4d10.4f6,4f6,7F0,4f5 6H*<5/2>,2160,110,,,,,,,,,,,
96,Cm XLVI,Cm,XLVI,45,Curium,Sb,[Kr].4d10.4f5,4f5,6H*<5/2>,4f4 5I<4>,2240,110,,,,,,,,,,,
96,Cm XLVII,Cm,XLVII,46,Curium,Sn,[Kr].4d10.4f4,4f4,5I<4>,4f3 4I*<9/2>,2320,120,,,,,,,,,,,
96,Cm XLVIII,Cm,XLVIII,47,Curium,In,[Kr].4d10.4f3,4f3,4I*<9/2>,4f2 3H<4>,2410,120,,,,,,,,,,,
96,Cm XLIX,Cm,XLIX,48,Curium,Cd,[Kr].4d10.4f2,4f2,3H<4>,4f 2F*<5/2>,2490,120,,,,,,,,,,,
96,Cm L,Cm,L,49,Curium,Ag,[Kr].4d10.4f,4f,2F*<5/2>,4d10 1S<0>,2580,120,,,,,,,,,,,
96,Cm LI,Cm,LI,50,Curium,Pd,[Kr].4d10,4d10,1S0,4d9 2D<5/2>,2976,4,,,,,,,,,,,
96,Cm LII,Cm,LII,51,Curium,Rh,[Kr].4d9,4d9,2D<5/2>,4d8 3F<4>,3050,4,,,,,,,,,,,
96,Cm LIII,Cm,LIII,52,Curium,Ru,[Kr].4d8,4d8,3F<4>,4d7 4F<9/2>,3125,4,,,,,,,,,,,
96,Cm LIV,Cm,LIV,53,Curium,Tc,[Kr].4d7,4d7,4F<9/2>,4d6 5D<4>,3207,5,,,,,,,,,,,
96,Cm LV,Cm,LV,54,Curium,Mo,[Kr].4d6,4d6,5D<4>,"4d-4.4d+ (0,5/2)<5/2>",3284,5,,,,,,,,,,,
96,Cm LVI,Cm,LVI,55,Curium,Nb,[Kr].4d5,4d-4.4d+,"(0,5/2)<5/2>",4d4 5D<0>,3360,5,,,,,,,,,,,
96,Cm LVII,Cm,LVII,56,Curium,Zr,[Kr].4d4,4d4,5D0,4d3 4F<3/2>,3515,5,,,,,,,,,,,
96,Cm LVIII,Cm,LVIII,57,Curium,Y,[Kr].4d3,4d3,4F<3/2>,4d2 3F<2>,3593,6,,,,,,,,,,,
96,Cm LIX,Cm,LIX,58,Curium,Sr,[Kr].4d2,4d2,3F<2>,4d 2D<3/2>,3679,6,,,,,,,,,,,
96,Cm LX,Cm,LX,59,Curium,Rb,[Kr].4d,4d,2D<3/2>,4p6 1S<0>,3758,7,,,,,,,,,,,
96,Cm LXI,Cm,LXI,60,Curium,Kr,[Ar].3d10.4s2.4p6,4p6,1S0,4p5 2P*<3/2>,4078,10,,,,,,,,,,,
96,Cm LXII,Cm,LXII,61,Curium,Br,[Ar].3d10.4s2.4p5,4p5,2P*<3/2>,4p4 3P<2>,4156,12,,,,,,,,,,,
96,Cm LXIII,Cm,LXIII,62,Curium,Se,[Ar].3d10.4s2.4p4,4p4,3P<2>,"4p-2.4p+ (0,3/2)*<3/2>",4239,15,,,,,,,,,,,
96,Cm LXIV,Cm,LXIV,63,Curium,As,[Ar].3d10.4s2.4p3,4p-2.4p+,"(0,3/2)*<3/2>",4p2 3P<0>,4317,19,,,,,,,,,,,
96,Cm LXV,Cm,LXV,64,Curium,Ge,[Ar].3d10.4s2.4p2,4p2,3P0,4p 2P*<1/2>,4791,24,,,,,,,,,,,
96,Cm LXVI,Cm,LXVI,65,Curium,Ga,[Ar].3d10.4s2.4p,4p,2P*<1/2>,4s2 1S<0>,4880,30,,,,,,,,,,,
96,Cm LXVII,Cm,LXVII,66,Curium,Zn,[Ar].3d10.4s2,4s2,1S0,4s 2S<1/2>,5110,40,,,,,,,,,,,
96,Cm LXVIII,Cm,LXVIII,67,Curium,Cu,[Ar].3d10.4s,4s,2S<1/2>,3d10 1S<0>,5200,40,,,,,,,,,,,
96,Cm LXIX,Cm,LXIX,68,Curium,Ni,[Ar].3d10,3d10,1S0,3d9 2D<5/2>,8270,50,,,,,,,,,,,
96,Cm LXX,Cm,LXX,69,Curium,Co,[Ar].3d9,3d9,2D<5/2>,3d8 3F<4>,8440,50,,,,,,,,,,,
96,Cm LXXI,Cm,LXXI,70,Curium,Fe,[Ar].3d8,3d8,3F<4>,3d7 4F<9/2>,8620,60,,,,,,,,,,,
96,Cm LXXII,Cm,LXXII,71,Curium,Mn,[Ar].3d7,3d7,4F<9/2>,"3d-4.3d+2 (0,4)<4>",8820,60,,,,,,,,,,,
96,Cm LXXIII,Cm,LXXIII,72,Curium,Cr,[Ar].3d6,3d-4.3d+2,"(0,4)<4>","3d-4.3d+ (0,5/2)<5/2>",9000,70,,,,,,,,,,,
96,Cm LXXIV,Cm,LXXIV,73,Curium,V,[Ar].3d5,3d-4.3d+,"(0,5/2)<5/2>",3d4 5D<0>,9180,90,,,,,,,,,,,
96,Cm LXXV,Cm,LXXV,74,Curium,Ti,[Ar].3d4,3d4,5D0,3d3 4F<3/2>,9630,90,,,,,,,,,,,
96,Cm LXXVI,Cm,LXXVI,75,Curium,Sc,[Ar].3d3,3d3,4F<3/2>,3d2 3F<2>,9820,100,,,,,,,,,,,
96,Cm LXXVII,Cm,LXXVII,76,Curium,Ca,[Ar].3d2,3d2,3F<2>,3d 2D<3/2>,10020,110,,,,,,,,,,,
96,Cm LXXVIII,Cm,LXXVIII,77,Curium,K,[Ar].3d,3d,2D<3/2>,3p6 1S<0>,10220,120,,,,,,,,,,,
96,Cm LXXIX,Cm,LXXIX,78,Curium,Ar,[Ne].3s2.3p6,3p6,1S0,3p5 2P*<3/2>,10760,120,,,,,,,,,,,
96,Cm LXXX,Cm,LXXX,79,Curium,Cl,[Ne].3s2.3p5,3p5,2P*<3/2>,3p4 3P<2>,10920,140,,,,,,,,,,,
96,Cm LXXXI,Cm,LXXXI,80,Curium,S,[Ne].3s2.3p4,3p4,3P<2>,3p3 2P*<3/2>,11100,150,,,,,,,,,,,
96,Cm LXXXII,Cm,LXXXII,81,Curium,P,[Ne].3s2.3p3,3p3,2P*<3/2>,3p2 3P<0>,11270,160,,,,,,,,,,,
96,Cm LXXXIII,Cm,LXXXIII,82,Curium,Si,[Ne].3s2.3p2,3p2,3P0,3p 2P*<1/2>,12740,170,,,,,,,,,,,
96,Cm LXXXIV,Cm,LXXXIV,83,Curium,Al,[Ne].3s2.3p,3p,2P*<1/2>,3s2 1S<0>,12950,190,,,,,,,,,,,
96,Cm LXXXV,Cm,LXXXV,84,Curium,Mg,[Ne].3s2,3s2,1S0,3s 2S<1/2>,13350,200,,,,,,,,,,,
96,Cm LXXXVI,Cm,LXXXVI,85,Curium,Na,[Ne].3s,3s,2S<1/2>,2p6 1S<0>,13550,220,,,,,,,,,,,
96,Cm LXXXVII,Cm,LXXXVII,86,Curium,Ne,1s2.2s2.2p6,2p6,1S0,2p5 2P*<3/2>,27740,240,,,,,,,,,,,
96,Cm LXXXVIII,Cm,LXXXVIII,87,Curium,F,1s2.2s2.2p5,2p5,2P*<3/2>,2p4 3P<2>,28180,250,,,,,,,,,,,
96,Cm LXXXIX,Cm,LXXXIX,88,Curium,O,1s2.2s2.2p4,2p4,3P<2>,"2p2<1/2>.2p<3/2> (0,3/2)*<3/2>",28700,300,,,,,,,,,,,
96,Cm XC,Cm,XC,89,Curium,N,1s2.2s2.2p3,2p2<1/2>.2p<3/2>,"(0,3/2)*<3/2>",2p2 3P<0>,29100,300,,,,,,,,,,,
96,Cm XCI,Cm,XCI,90,Curium,C,1s2.2s2.2p2,2p2,3P0,2p 2P*<1/2>,34600,300,,,,,,,,,,,
96,Cm XCII,Cm,XCII,91,Curium,B,1s2.2s2.2p,2p,2P*<1/2>,2s2 1S<0>,35200,300,,,,,,,,,,,
96,Cm XCIII,Cm,XCIII,92,Curium,Be,1s2.2s2,2s2,1S0,2s 2S<1/2>,36000,400,,,,,,,,,,,
96,Cm XCIV,Cm,XCIV,93,Curium,Li,1s2.2s,1s2.2s,2S<1/2>,1s2 1S<0>,36493,0.9,,,,,,,,,,,
96,Cm XCV,Cm,XCV,94,Curium,He,1s2,1s2,1S0,1s 2S<1/2>,143311,4,,,,,,,,,,,
96,Cm XCVI,Cm,XCVI,95,Curium,H,1s,1s,2S<1/2>,,145740.1,1.6,,,,,,,,,,,
97,Bk I,Bk,I,0,Berkelium,Bk,[Rn].5f9.7s2,5f9.7s2,6H*<15/2>,5f9.7s 7H*<8>,6.19785,0.00025,,,,,,,,,,,
97,Bk II,Bk,II,1,Berkelium,Cm,[Rn].5f9.7s,5f9.7s,7H*<8>,5f9 6H*<15/2>,11.9,0.4,,,,,,,,,,,
97,Bk III,Bk,III,2,Berkelium,Am,[Rn].5f9,5f9,6H*<15/2>,5f8 7F<6>,21.6,0.4,,,,,,,,,,,
97,Bk IV,Bk,IV,3,Berkelium,Pu,[Rn].5f8,5f8,7F<6>,5f7 8S*<7/2>,36,0.4,,,,,,,,,,,
97,Bk V,Bk,V,4,Berkelium,Np,[Rn].5f7,5f7,8S*<7/2>,5f6 7F<0>,56,1.9,,,,,,,,,,,
97,Bk VI,Bk,VI,5,Berkelium,U,[Rn].5f6,5f6,7F0,5f5 6H*<5/2>,70.1,2,,,,,,,,,,,
97,Bk VII,Bk,VII,6,Berkelium,Pa,[Rn].5f5,5f5,6H*<5/2>,5f4 5I<4>,90,2,,,,,,,,,,,
97,Bk VIII,Bk,VIII,7,Berkelium,Th,[Rn].5f4,5f4,5I<4>,5f6.6p3,114,6,,,,,,,,,,,
97,Bk IX,Bk,IX,8,Berkelium,Ac,[Hg].5f6.6p3,5f6.6p3,*,5f6.6p2,130,6,,,,,,,,,,,
97,Bk X,Bk,X,9,Berkelium,Ra,[Hg].5f6.6p2,5f6.6p2,,5f5.6p2*,147,7,,,,,,,,,,,
97,Bk XI,Bk,XI,10,Berkelium,Fr,[Hg].5f5.6p2,5f5.6p2,*,5f4.6p2,171,9,,,,,,,,,,,
97,Bk XII,Bk,XII,11,Berkelium,Rn,[Hg].5f4.6p2,5f4.6p2,,5f3.6p2*,195,10,,,,,,,,,,,
97,Bk XIII,Bk,XIII,12,Berkelium,At,[Hg].5f3.6p2,5f3.6p2,*,5f2.6p2,218,11,,,,,,,,,,,
97,Bk XIV,Bk,XIV,13,Berkelium,Po,[Hg].5f2.6p2,5f2.6p2,,5f2.6p*,240,12,,,,,,,,,,,
97,Bk XV,Bk,XV,14,Berkelium,Bi,[Hg].5f2.6p,5f2.6p,*,5f2,259,12,,,,,,,,,,,
97,Bk XVI,Bk,XVI,15,Berkelium,Pb,[Hg].5f2,5f2,,5f 2F*<5/2>,279,14,,,,,,,,,,,
97,Bk XVII,Bk,XVII,16,Berkelium,Tl,[Hg].5f,5f,2F*<5/2>,6s2 1S<0>,303,15,,,,,,,,,,,
97,Bk XVIII,Bk,XVIII,17,Berkelium,Hg,[Xe].4f14.5d10.6s2,6s2,1S0,6s 2S<1/2>,339,3,,,,,,,,,,,
97,Bk XIX,Bk,XIX,18,Berkelium,Au,[Xe].4f14.5d10.6s,6s,2S<1/2>,5d10 1S<0>,361,3,,,,,,,,,,,
97,Bk XX,Bk,XX,19,Berkelium,Pt,[Xe].4f14.5d10,5d10,1S0,5d9 2D<5/2>,497,4,,,,,,,,,,,
97,Bk XXI,Bk,XXI,20,Berkelium,Ir,[Xe].4f14.5d9,5d9,2D<5/2>,5d8 3F<4>,526,4,,,,,,,,,,,
97,Bk XXII,Bk,XXII,21,Berkelium,Os,[Xe].4f14.5d8,5d8,3F<4>,5d7 4F<9/2>,557,4,,,,,,,,,,,
97,Bk XXIII,Bk,XXIII,22,Berkelium,Re,[Xe].4f14.5d7,5d7,4F<9/2>,5d6 5D<4>,590,4,,,,,,,,,,,
97,Bk XXIV,Bk,XXIV,23,Berkelium,W,[Xe].4f14.5d6,5d6,5D<4>,5d5 6S<5/2>,621,4,,,,,,,,,,,
97,Bk XXV,Bk,XXV,24,Berkelium,Ta,[Xe].4f14.5d5,5d5,6S<5/2>,5d4 5D<0>,652,4,,,,,,,,,,,
97,Bk XXVI,Bk,XXVI,25,Berkelium,Hf,[Xe].4f14.5d4,5d4,5D0,5d3 4F<3/2>,700,4,,,,,,,,,,,
97,Bk XXVII,Bk,XXVII,26,Berkelium,Lu,[Xe].4f14.5d3,5d3,4F<3/2>,5d2 3F<2>,733,4,,,,,,,,,,,
97,Bk XXVIII,Bk,XXVIII,27,Berkelium,Yb,[Xe].4f14.5d2,5d2,3F<2>,5d 2D<3/2>,768,4,,,,,,,,,,,
97,Bk XXIX,Bk,XXIX,28,Berkelium,Tm,[Xe].4f14.5d,5d,2D<3/2>,4f14 1S<0>,800,4,,,,,,,,,,,
97,Bk XXX,Bk,XXX,29,Berkelium,Er,[Xe].4f14,4f14,1S0,4f14.5p5 2P*<3/2>,960,50,,,,,,,,,,,
97,Bk XXXI,Bk,XXXI,30,Berkelium,Ho,[Cd].4f14.5p5,4f14.5p5,2P*<3/2>,4f14.5p4 3P<2>,1000,50,,,,,,,,,,,
97,Bk XXXII,Bk,XXXII,31,Berkelium,Dy,[Cd].4f14.5p4,4f14.5p4,3P<2>,4f14.5p3 2P*<3/2>,1040,50,,,,,,,,,,,
97,Bk XXXIII,Bk,XXXIII,32,Berkelium,Tb,[Cd].4f14.5p3,4f14.5p3,2P*<3/2>,4f14.5p2 3P<0>,1080,50,,,,,,,,,,,
97,Bk XXXIV,Bk,XXXIV,33,Berkelium,Gd,[Cd].4f14.5p2,4f14.5p2,3P0,4f14.5p 2P*<1/2>,1200,60,,,,,,,,,,,
97,Bk XXXV,Bk,XXXV,34,Berkelium,Eu,[Cd].4f14.5p,4f14.5p,2P*<1/2>,4f14 1S<0>,1240,60,,,,,,,,,,,
97,Bk XXXVI,Bk,XXXVI,35,Berkelium,Sm,[Cd].4f14,4f14,1S0,4f14.5s 2S<1/2>,1360,70,,,,,,,,,,,
97,Bk XXXVII,Bk,XXXVII,36,Berkelium,Pm,[Kr].4d10.4f14.5s,4f14.5s,2S<1/2>,4f14 1S<0>,1410,70,,,,,,,,,,,
97,Bk XXXVIII,Bk,XXXVIII,37,Berkelium,Nd,[Kr].4d10.4f14,4f14,1S0,4f13 2F*<7/2>,1550,80,,,,,,,,,,,
97,Bk XXXIX,Bk,XXXIX,38,Berkelium,Pr,[Kr].4d10.4f13,4f13,2F*<7/2>,4f12,1630,80,,,,,,,,,,,
97,Bk XL,Bk,XL,39,Berkelium,Ce,[Kr].4d10.4f12,4f12,,4f11 4I*<15/2>,1720,90,,,,,,,,,,,
97,Bk XLI,Bk,XLI,40,Berkelium,La,[Kr].4d10.4f11,4f11,4I*<15/2>,4f10 5I<8>,1800,90,,,,,,,,,,,
97,Bk XLII,Bk,XLII,41,Berkelium,Ba,[Kr].4d10.4f10,4f10,5I<8>,4f9 6H*<15/2>,1890,90,,,,,,,,,,,
97,Bk XLIII,Bk,XLIII,42,Berkelium,Cs,[Kr].4d10.4f9,4f9,6H*<15/2>,4f8 7F<6>,1970,100,,,,,,,,,,,
97,Bk XLIV,Bk,XLIV,43,Berkelium,Xe,[Kr].4d10.4f8,4f8,7F<6>,4f7 8S*<7/2>,2050,100,,,,,,,,,,,
97,Bk XLV,Bk,XLV,44,Berkelium,I,[Kr].4d10.4f7,4f7,8S*<7/2>,4f6 7F<0>,2140,110,,,,,,,,,,,
97,Bk XLVI,Bk,XLVI,45,Berkelium,Te,[Kr].4d10.4f6,4f6,7F0,4f5 6H*<5/2>,2240,110,,,,,,,,,,,
97,Bk XLVII,Bk,XLVII,46,Berkelium,Sb,[Kr].4d10.4f5,4f5,6H*<5/2>,4f4 5I<4>,2320,120,,,,,,,,,,,
97,Bk XLVIII,Bk,XLVIII,47,Berkelium,Sn,[Kr].4d10.4f4,4f4,5I<4>,4f3 4I*<9/2>,2410,120,,,,,,,,,,,
97,Bk XLIX,Bk,XLIX,48,Berkelium,In,[Kr].4d10.4f3,4f3,4I*<9/2>,4f2 3H<4>,2490,120,,,,,,,,,,,
97,Bk L,Bk,L,49,Berkelium,Cd,[Kr].4d10.4f2,4f2,3H<4>,4f 2F*<5/2>,2580,120,,,,,,,,,,,
97,Bk LI,Bk,LI,50,Berkelium,Ag,[Kr].4d10.4f,4f,2F*<5/2>,4d10 1S<0>,2670,140,,,,,,,,,,,
97,Bk LII,Bk,LII,51,Berkelium,Pd,[Kr].4d10,4d10,1S0,4d9 2D<5/2>,3080,4,,,,,,,,,,,
97,Bk LIII,Bk,LIII,52,Berkelium,Rh,[Kr].4d9,4d9,2D<5/2>,4d8 3F<4>,3154,4,,,,,,,,,,,
97,Bk LIV,Bk,LIV,53,Berkelium,Ru,[Kr].4d8,4d8,3F<4>,4d7 4F<9/2>,3232,5,,,,,,,,,,,
97,Bk LV,Bk,LV,54,Berkelium,Tc,[Kr].4d7,4d7,4F<9/2>,4d6 5D<4>,3315,5,,,,,,,,,,,
97,Bk LVI,Bk,LVI,55,Berkelium,Mo,[Kr].4d6,4d6,5D<4>,"4d-4.4d+ (0,5/2)<5/2>",3393,5,,,,,,,,,,,
97,Bk LVII,Bk,LVII,56,Berkelium,Nb,[Kr].4d5,4d-4.4d+,"(0,5/2)<5/2>",4d4 5D<0>,3469,5,,,,,,,,,,,
97,Bk LVIII,Bk,LVIII,57,Berkelium,Zr,[Kr].4d4,4d4,5D0,4d3 4F<3/2>,3630,6,,,,,,,,,,,
97,Bk LIX,Bk,LIX,58,Berkelium,Y,[Kr].4d3,4d3,4F<3/2>,4d2 3F<2>,3709,6,,,,,,,,,,,
97,Bk LX,Bk,LX,59,Berkelium,Sr,[Kr].4d2,4d2,3F<2>,4d 2D<3/2>,3797,7,,,,,,,,,,,
97,Bk LXI,Bk,LXI,60,Berkelium,Rb,[Kr].4d,4d,2D<3/2>,4p6 1S<0>,3877,10,,,,,,,,,,,
97,Bk LXII,Bk,LXII,61,Berkelium,Kr,[Ar].3d10.4s2.4p6,4p6,1S0,4p5 2P*<3/2>,4202,12,,,,,,,,,,,
97,Bk LXIII,Bk,LXIII,62,Berkelium,Br,[Ar].3d10.4s2.4p5,4p5,2P*<3/2>,4p4 3P<2>,4281,15,,,,,,,,,,,
97,Bk LXIV,Bk,LXIV,63,Berkelium,Se,[Ar].3d10.4s2.4p4,4p4,3P<2>,"4p-2.4p+ (0,3/2)*<3/2>",4365,19,,,,,,,,,,,
97,Bk LXV,Bk,LXV,64,Berkelium,As,[Ar].3d10.4s2.4p3,4p-2.4p+,"(0,3/2)*<3/2>",4p2 3P<0>,4445,24,,,,,,,,,,,
97,Bk LXVI,Bk,LXVI,65,Berkelium,Ge,[Ar].3d10.4s2.4p2,4p2,3P0,4p 2P*<1/2>,4940,30,,,,,,,,,,,
97,Bk LXVII,Bk,LXVII,66,Berkelium,Ga,[Ar].3d10.4s2.4p,4p,2P*<1/2>,4s2 1S<0>,5040,40,,,,,,,,,,,
97,Bk LXVIII,Bk,LXVIII,67,Berkelium,Zn,[Ar].3d10.4s2,4s2,1S0,4s 2S<1/2>,5270,40,,,,,,,,,,,
97,Bk LXIX,Bk,LXIX,68,Berkelium,Cu,[Ar].3d10.4s,4s,2S<1/2>,3d10 1S<0>,5360,50,,,,,,,,,,,
97,Bk LXX,Bk,LXX,69,Berkelium,Ni,[Ar].3d10,3d10,1S0,3d9 2D<5/2>,8500,50,,,,,,,,,,,
97,Bk LXXI,Bk,LXXI,70,Berkelium,Co,[Ar].3d9,3d9,2D<5/2>,3d8 3F<4>,8670,60,,,,,,,,,,,
97,Bk LXXII,Bk,LXXII,71,Berkelium,Fe,[Ar].3d8,3d8,3F<4>,3d7 4F<9/2>,8850,60,,,,,,,,,,,
97,Bk LXXIII,Bk,LXXIII,72,Berkelium,Mn,[Ar].3d7,3d7,4F<9/2>,"3d-4.3d+2 (0,4)<4>",9050,70,,,,,,,,,,,
97,Bk LXXIV,Bk,LXXIV,73,Berkelium,Cr,[Ar].3d6,3d-4.3d+2,"(0,4)<4>","3d-4.3d+ (0,5/2)<5/2>",9240,90,,,,,,,,,,,
97,Bk LXXV,Bk,LXXV,74,Berkelium,V,[Ar].3d5,3d-4.3d+,"(0,5/2)<5/2>",3d4 5D<0>,9420,90,,,,,,,,,,,
97,Bk LXXVI,Bk,LXXVI,75,Berkelium,Ti,[Ar].3d4,3d4,5D0,3d3 4F<3/2>,9880,100,,,,,,,,,,,
97,Bk LXXVII,Bk,LXXVII,76,Berkelium,Sc,[Ar].3d3,3d3,4F<3/2>,3d2 3F<2>,10070,110,,,,,,,,,,,
97,Bk LXXVIII,Bk,LXXVIII,77,Berkelium,Ca,[Ar].3d2,3d2,3F<2>,3d 2D<3/2>,10280,120,,,,,,,,,,,
97,Bk LXXIX,Bk,LXXIX,78,Berkelium,K,[Ar].3d,3d,2D<3/2>,3p6 1S<0>,10480,120,,,,,,,,,,,
97,Bk LXXX,Bk,LXXX,79,Berkelium,Ar,[Ne].3s2.3p6,3p6,1S0,3p5 2P*<3/2>,11020,140,,,,,,,,,,,
97,Bk LXXXI,Bk,LXXXI,80,Berkelium,Cl,[Ne].3s2.3p5,3p5,2P*<3/2>,3p4 3P<2>,11190,150,,,,,,,,,,,
97,Bk LXXXII,Bk,LXXXII,81,Berkelium,S,[Ne].3s2.3p4,3p4,3P<2>,3p3 2P*<3/2>,11380,160,,,,,,,,,,,
97,Bk LXXXIII,Bk,LXXXIII,82,Berkelium,P,[Ne].3s2.3p3,3p3,2P*<3/2>,3p2 3P<0>,11550,170,,,,,,,,,,,
97,Bk LXXXIV,Bk,LXXXIV,83,Berkelium,Si,[Ne].3s2.3p2,3p2,3P0,3p 2P*<1/2>,13090,190,,,,,,,,,,,
97,Bk LXXXV,Bk,LXXXV,84,Berkelium,Al,[Ne].3s2.3p,3p,2P*<1/2>,3s2 1S<0>,13300,200,,,,,,,,,,,
97,Bk LXXXVI,Bk,LXXXVI,85,Berkelium,Mg,[Ne].3s2,3s2,1S0,3s 2S<1/2>,13720,220,,,,,,,,,,,
97,Bk LXXXVII,Bk,LXXXVII,86,Berkelium,Na,[Ne].3s,3s,2S<1/2>,2p6 1S<0>,13910,240,,,,,,,,,,,
97,Bk LXXXVIII,Bk,LXXXVIII,87,Berkelium,Ne,1s2.2s2.2p6,2p6,1S0,2p5 2P*<3/2>,28380,250,,,,,,,,,,,
97,Bk LXXXIX,Bk,LXXXIX,88,Berkelium,F,1s2.2s2.2p5,2p5,2P*<3/2>,2p4 3P<2>,28800,300,,,,,,,,,,,
97,Bk XC,Bk,XC,89,Berkelium,O,1s2.2s2.2p4,2p4,3P<2>,"2p2<1/2>.2p<3/2> (0,3/2)*<3/2>",29300,300,,,,,,,,,,,
97,Bk XCI,Bk,XCI,90,Berkelium,N,1s2.2s2.2p3,2p2<1/2>.2p<3/2>,"(0,3/2)*<3/2>",2p2 3P<0>,29800,300,,,,,,,,,,,
97,Bk XCII,Bk,XCII,91,Berkelium,C,1s2.2s2.2p2,2p2,3P0,2p 2P*<1/2>,35500,300,,,,,,,,,,,
97,Bk XCIII,Bk,XCIII,92,Berkelium,B,1s2.2s2.2p,2p,2P*<1/2>,2s2 1S<0>,36200,400,,,,,,,,,,,
97,Bk XCIV,Bk,XCIV,93,Berkelium,Be,1s2.2s2,2s2,1S0,2s 2S<1/2>,37000,400,,,,,,,,,,,
97,Bk XCV,Bk,XCV,94,Berkelium,Li,1s2.2s,1s2.2s,2S<1/2>,1s2 1S<0>,37457.6,0.9,,,,,,,,,,,
97,Bk XCVI,Bk,XCVI,95,Berkelium,He,1s2,1s2,1S0,1s 2S<1/2>,146917,5,,,,,,,,,,,
97,Bk XCVII,Bk,XCVII,96,Berkelium,H,1s,1s,2S<1/2>,,149398,5,,,,,,,,,,,
98,Cf I,Cf,I,0,Californium,Cf,[Rn].5f10.7s2,5f10.7s2,5I<8>,5f10.7s 6I<17/2>,6.281878,0.000006,,,,,,,,,,,
98,Cf II,Cf,II,1,Californium,Bk,[Rn].5f10.7s,5f10.7s,6I<17/2>,5f10 5I<8>,12,0.4,,,,,,,,,,,
98,Cf III,Cf,III,2,Californium,Cm,[Rn].5f10,5f10,5I<8>,5f9 6H*<15/2>,22.4,0.4,,,,,,,,,,,
98,Cf IV,Cf,IV,3,Californium,Am,[Rn].5f9,5f9,6H*<15/2>,5f8 7F<6>,37.7,0.4,,,,,,,,,,,
98,Cf V,Cf,V,4,Californium,Pu,[Rn].5f8,5f8,7F<6>,5f7 8S*<7/2>,51.9,1.9,,,,,,,,,,,