At. num,Sp. Name,Element,Valence,Ion Charge,El. Name,Isoel. Seq.,Ground Shells (a),Ground Config.,Ground Level,Ionized Level,Ionization Energy (b) (eV),Uncertainty (c) (eV),,,,,,,,,,,
48,Cd XI,Cd,XI,10,Cadmium,Sr,[Kr].4d2,4d2,3F<2>,4d 2D<3/2>,195,2.4,,,,,,,,,,,
48,Cd XII,Cd,XII,11,Cadmium,Rb,[Kr].4d,4d,2D<3/2>,4p6 1S<0>,218,2.5,,,,,,,,,,,
48,Cd XIII,Cd,XIII,12,Cadmium,Kr,[Ar].3d10.4s2.4p6,4p6,1S0,4p5 2P*<3/2>,305,3,,,,,,,,,,,
48,Cd XIV,Cd,XIV,13,Cadmium,Br,[Ar].3d10.4s2.4p5,4p5,2P*<3/2>,4p4 3P<2>,329,3,,,,,,,,,,,
48,Cd XV,Cd,XV,14,Cadmium,Se,[Ar].3d10.4s2.4p4,4p4,3P<2>,4p3 4S*<3/2>,358,3,,,,,,,,,,,
48,Cd XVI,Cd,XVI,15,Cadmium,As,[Ar].3d10.4s2.4p3,4p3,4S*<3/2>,4p2 3P<0>,385,3,,,,,,,,,,,
48,Cd XVII,Cd,XVII,16,Cadmium,Ge,[Ar].3d10.4s2.4p2,4p2,3P0,4p 2P*<1/2>,421,3,,,,,,,,,,,
48,Cd XVIII,Cd,XVIII,17,Cadmium,Ga,[Ar].3d10.4s2.4p,4p,2P*<1/2>,4s2 1S<0>,452.6,0.3,,,,,,,,,,,
48,Cd XIX,Cd,XIX,18,Cadmium,Zn,[Ar].3d10.4s2,4s2,1S0,4s 2S<1/2>,513,3,,,,,,,,,,,
48,Cd XX,Cd,XX,19,Cadmium,Cu,[Ar].3d10.4s,4s,2S<1/2>,3d10 1S<0>,546.19,0.17,,,,,,,,,,,
48,Cd XXI,Cd,XXI,20,Cadmium,Ni,[Ar].3d10,3d10,1S0,3d9 2D<5/2>,963,4,,,,,,,,,,,
48,Cd XXII,Cd,XXII,21,Cadmium,Co,[Ar].3d9,3d9,2D<5/2>,3d8 3F<4>,1026,4,,,,,,,,,,,
48,Cd XXIII,Cd,XXIII,22,Cadmium,Fe,[Ar].3d8,3d8,3F<4>,3d7 4F<9/2>,1095,4,,,,,,,,,,,
48,Cd XXIV,Cd,XXIV,23,Cadmium,Mn,[Ar].3d7,3d7,4F<9/2>,3d6 5D<4>,1167,4,,,,,,,,,,,
48,Cd XXV,Cd,XXV,24,Cadmium,Cr,[Ar].3d6,3d6,5D<4>,3d5 6S<5/2>,1237,4,,,,,,,,,,,
48,Cd XXVI,Cd,XXVI,25,Cadmium,V,[Ar].3d5,3d5,6S<5/2>,3d4 5D<0>,1320,4,,,,,,,,,,,
48,Cd XXVII,Cd,XXVII,26,Cadmium,Ti,[Ar].3d4,3d4,5D0,3d3 4F<3/2>,1401,4,,,,,,,,,,,
48,Cd XXVIII,Cd,XXVIII,27,Cadmium,Sc,[Ar].3d3,3d3,4F<3/2>,3d2 3F<2>,1477,4,,,,,,,,,,,
48,Cd XXIX,Cd,XXIX,28,Cadmium,Ca,[Ar].3d2,3d2,3F<2>,3d 2D<3/2>,1558,4,,,,,,,,,,,
48,Cd XXX,Cd,XXX,29,Cadmium,K,[Ar].3d,3d,2D<3/2>,3p6 1S<0>,1635,4,,,,,,,,,,,
48,Cd XXXI,Cd,XXXI,30,Cadmium,Ar,[Ne].3s2.3p6,3p6,1S0,3p5 2P*<3/2>,1852,5,,,,,,,,,,,
48,Cd XXXII,Cd,XXXII,31,Cadmium,Cl,[Ne].3s2.3p5,3p5,2P*<3/2>,3p4 3P<2>,1917.9,2,,,,,,,,,,,
48,Cd XXXIII,Cd,XXXIII,32,Cadmium,S,[Ne].3s2.3p4,3p4,3P<2>,3p3 4S*<3/2>,1998,3,,,,,,,,,,,
48,Cd XXXIV,Cd,XXXIV,33,Cadmium,P,[Ne].3s2.3p3,3p3,4S*<3/2>,3p2 3P<0>,2091,8,,,,,,,,,,,
48,Cd XXXV,Cd,XXXV,34,Cadmium,Si,[Ne].3s2.3p2,3p2,3P0,3p 2P*<1/2>,2195,4,,,,,,,,,,,
48,Cd XXXVI,Cd,XXXVI,35,Cadmium,Al,[Ne].3s2.3p,3p,2P*<1/2>,3s2 1S<0>,2250,10,,,,,,,,,,,
48,Cd XXXVII,Cd,XXXVII,36,Cadmium,Mg,[Ne].3s2,3s2,1S0,3s 2S<1/2>,2427,3,,,,,,,,,,,
48,Cd XXXVIII,Cd,XXXVIII,37,Cadmium,Na,[Ne].3s,3s,2S<1/2>,2p6 1S<0>,2498.62,0.08,,,,,,,,,,,
48,Cd XXXIX,Cd,XXXIX,38,Cadmium,Ne,1s2.2s2.2p6,2p6,1S0,2p5 2P*<3/2>,5839,3,,,,,,,,,,,
48,Cd XL,Cd,XL,39,Cadmium,F,1s2.2s2.2p5,2p5,2P*<3/2>,2p4 3P<2>,6039,9,,,,,,,,,,,
48,Cd XLI,Cd,XLI,40,Cadmium,O,1s2.2s2.2p4,2p4,3P<2>,"2p2<1/2>.2p<3/2> (0,3/2)*<3/2>",6257,12,,,,,,,,,,,
48,Cd XLII,Cd,XLII,41,Cadmium,N,1s2.2s2.2p3,2p2<1/2>.2p<3/2>,"(0,3/2)*<3/2>",2p2 3P<0>,6460,40,,,,,,,,,,,
48,Cd XLIII,Cd,XLIII,42,Cadmium,C,1s2.2s2.2p2,2p2,3P0,2p 2P*<1/2>,6869,8,,,,,,,,,,,
48,Cd XLIV,Cd,XLIV,43,Cadmium,B,1s2.2s2.2p,2p,2P*<1/2>,2s2 1S<0>,7109,5,,,,,,,,,,,
48,Cd XLV,Cd,XLV,44,Cadmium,Be,1s2.2s2,2s2,1S0,2s 2S<1/2>,7414,7,,,,,,,,,,,
48,Cd XLVI,Cd,XLVI,45,Cadmium,Li,1s2.2s,1s2.2s,2S<1/2>,1s2 1S<0>,7607.95,0.03,,,,,,,,,,,
48,Cd XLVII,Cd,XLVII,46,Cadmium,He,1s2,1s2,1S0,1s 2S<1/2>,31451.07,0.017,,,,,,,,,,,
48,Cd XLVIII,Cd,XLVIII,47,Cadmium,H,1s,1s,2S<1/2>,,32341.587,0.009,,,,,,,,,,,
49,In I,In,I,0,Indium,In,[Cd].5p,5s2.5p,2P*<1/2>,5s2 1S<0>,5.7863558,0.0000005,,,,,,,,,,,
49,In II,In,II,1,Indium,Cd,[Kr].4d10.5s2,5s2,1S0,5s 2S<1/2>,18.87041,0.00003,,,,,,,,,,,
49,In III,In,III,2,Indium,Ag,[Kr].4d10.5s,4d10.5s,2S<1/2>,4d10 1S<0>,28.04415,0.00012,,,,,,,,,,,
49,In IV,In,IV,3,Indium,Pd,[Kr].4d10,4d10,1S0,4d9 2D<5/2>,55.45,0.04,,,,,,,,,,,
49,In V,In,V,4,Indium,Rh,[Kr].4d9,4d9,2D<5/2>,4d8 3F<4>,69.3,1.2,,,,,,,,,,,
49,In VI,In,VI,5,Indium,Ru,[Kr].4d8,4d8,3F<4>,4d7 4F<9/2>,90,2,,,,,,,,,,,
49,In VII,In,VII,6,Indium,Tc,[Kr].4d7,4d7,4F<9/2>,4d6 5D<4>,109,2,,,,,,,,,,,
49,In VIII,In,VIII,7,Indium,Mo,[Kr].4d6,4d6,5D<4>,4d5 6S<5/2>,130.1,2.1,,,,,,,,,,,
49,In IX,In,IX,8,Indium,Nb,[Kr].4d5,4d5,6S<5/2>,4d4 5D<0>,156,2.2,,,,,,,,,,,
49,In X,In,X,9,Indium,Zr,[Kr].4d4,4d4,5D0,4d3 4F<3/2>,178,2.2,,,,,,,,,,,
49,In XI,In,XI,10,Indium,Y,[Kr].4d3,4d3,4F<3/2>,4d2 3F<2>,201,2.4,,,,,,,,,,,
49,In XII,In,XII,11,Indium,Sr,[Kr].4d2,4d2,3F<2>,4d 2D<3/2>,226,2.5,,,,,,,,,,,
49,In XIII,In,XIII,12,Indium,Rb,[Kr].4d,4d,2D<3/2>,4p6 1S<0>,249,3,,,,,,,,,,,
49,In XIV,In,XIV,13,Indium,Kr,[Ar].3d10.4s2.4p6,4p6,1S0,4p5 2P*<3/2>,341,3,,,,,,,,,,,
49,In XV,In,XV,14,Indium,Br,[Ar].3d10.4s2.4p5,4p5,2P*<3/2>,4p4 3P<2>,368,3,,,,,,,,,,,
49,In XVI,In,XVI,15,Indium,Se,[Ar].3d10.4s2.4p4,4p4,3P<2>,4p3 4S*<3/2>,396,3,,,,,,,,,,,
49,In XVII,In,XVII,16,Indium,As,[Ar].3d10.4s2.4p3,4p3,4S*<3/2>,4p2 3P<0>,425,3,,,,,,,,,,,
49,In XVIII,In,XVIII,17,Indium,Ge,[Ar].3d10.4s2.4p2,4p2,3P0,4p 2P*<1/2>,462,3,,,,,,,,,,,
49,In XIX,In,XIX,18,Indium,Ga,[Ar].3d10.4s2.4p,4p,2P*<1/2>,4s2 1S<0>,497.1,0.3,,,,,,,,,,,
49,In XX,In,XX,19,Indium,Zn,[Ar].3d10.4s2,4s2,1S0,4s 2S<1/2>,560,4,,,,,,,,,,,
49,In XXI,In,XXI,20,Indium,Cu,[Ar].3d10.4s,4s,2S<1/2>,3d10 1S<0>,593.38,0.2,,,,,,,,,,,
49,In XXII,In,XXII,21,Indium,Ni,[Ar].3d10,3d10,1S0,3d9 2D<5/2>,1043,4,,,,,,,,,,,
49,In XXIII,In,XXIII,22,Indium,Co,[Ar].3d9,3d9,2D<5/2>,3d8 3F<4>,1109,4,,,,,,,,,,,
49,In XXIV,In,XXIV,23,Indium,Fe,[Ar].3d8,3d8,3F<4>,3d7 4F<9/2>,1181,4,,,,,,,,,,,
49,In XXV,In,XXV,24,Indium,Mn,[Ar].3d7,3d7,4F<9/2>,3d6 5D<4>,1255,4,,,,,,,,,,,
49,In XXVI,In,XXVI,25,Indium,Cr,[Ar].3d6,3d6,5D<4>,3d5 6S<5/2>,1328,4,,,,,,,,,,,
49,In XXVII,In,XXVII,26,Indium,V,[Ar].3d5,3d5,6S<5/2>,3d4 5D<0>,1413,4,,,,,,,,,,,
49,In XXVIII,In,XXVIII,27,Indium,Ti,[Ar].3d4,3d4,5D0,3d3 4F<3/2>,1496,4,,,,,,,,,,,
49,In XXIX,In,XXIX,28,Indium,Sc,[Ar].3d3,3d3,4F<3/2>,3d2 3F<2>,1575,4,,,,,,,,,,,
49,In XXX,In,XXX,29,Indium,Ca,[Ar].3d2,3d2,3F<2>,3d 2D<3/2>,1659,4,,,,,,,,,,,
49,In XXXI,In,XXXI,30,Indium,K,[Ar].3d,3d,2D<3/2>,3p6 1S<0>,1738,4,,,,,,,,,,,
49,In XXXII,In,XXXII,31,Indium,Ar,[Ne].3s2.3p6,3p6,1S0,3p5 2P*<3/2>,1961,5,,,,,,,,,,,
49,In XXXIII,In,XXXIII,32,Indium,Cl,[Ne].3s2.3p5,3p5,2P*<3/2>,3p4 3P<2>,2028.5,2.1,,,,,,,,,,,
49,In XXXIV,In,XXXIV,33,Indium,S,[Ne].3s2.3p4,3p4,3P<2>,3p3 4S*<3/2>,2111,3,,,,,,,,,,,
49,In XXXV,In,XXXV,34,Indium,P,[Ne].3s2.3p3,3p3,4S*<3/2>,3p2 3P<0>,2207,8,,,,,,,,,,,
49,In XXXVI,In,XXXVI,35,Indium,Si,[Ne].3s2.3p2,3p2,3P0,3p 2P*<1/2>,2317,5,,,,,,,,,,,
49,In XXXVII,In,XXXVII,36,Indium,Al,[Ne].3s2.3p,3p,2P*<1/2>,3s2 1S<0>,2373,11,,,,,,,,,,,
49,In XXXVIII,In,XXXVIII,37,Indium,Mg,[Ne].3s2,3s2,1S0,3s 2S<1/2>,2555,3,,,,,,,,,,,
49,In XXXIX,In,XXXIX,38,Indium,Na,[Ne].3s,3s,2S<1/2>,2p6 1S<0>,2628.77,0.08,,,,,,,,,,,
49,In XL,In,XL,39,Indium,Ne,1s2.2s2.2p6,2p6,1S0,2p5 2P*<3/2>,6126,3,,,,,,,,,,,
49,In XLI,In,XLI,40,Indium,F,1s2.2s2.2p5,2p5,2P*<3/2>,2p4 3P<2>,6331,10,,,,,,,,,,,
49,In XLII,In,XLII,41,Indium,O,1s2.2s2.2p4,2p4,3P<2>,"2p2<1/2>.2p<3/2> (0,3/2)*<3/2>",6554,13,,,,,,,,,,,
49,In XLIII,In,XLIII,42,Indium,N,1s2.2s2.2p3,2p2<1/2>.2p<3/2>,"(0,3/2)*<3/2>",2p2 3P<0>,6770,50,,,,,,,,,,,
49,In XLIV,In,XLIV,43,Indium,C,1s2.2s2.2p2,2p2,3P0,2p 2P*<1/2>,7196,8,,,,,,,,,,,
49,In XLV,In,XLV,44,Indium,B,1s2.2s2.2p,2p,2P*<1/2>,2s2 1S<0>,7442,6,,,,,,,,,,,
49,In XLVI,In,XLVI,45,Indium,Be,1s2.2s2,2s2,1S0,2s 2S<1/2>,7754,7,,,,,,,,,,,
49,In XLVII,In,XLVII,46,Indium,Li,1s2.2s,1s2.2s,2S<1/2>,1s2 1S<0>,7953.14,0.03,,,,,,,,,,,
49,In XLVIII,In,XLVIII,47,Indium,He,1s2,1s2,1S0,1s 2S<1/2>,32837.593,0.019,,,,,,,,,,,
49,In XLIX,In,XLIX,48,Indium,H,1s,1s,2S<1/2>,,33750.404,0.01,,,,,,,,,,,
50,Sn I,Sn,I,0,Tin,Sn,[Cd].5p2,5s2.5p2,3P0,5s2.5p 2P*<1/2>,7.343918,0.000012,,,,,,,,,,,
50,Sn II,Sn,II,1,Tin,In,[Cd].5p,5s2.5p,2P*<1/2>,5s2 1S<0>,14.63307,0.00009,,,,,,,,,,,
50,Sn III,Sn,III,2,Tin,Cd,[Kr].4d10.5s2,4d10.5s2,1S0,5s 2S<1/2>,30.506,0.003,,,,,,,,,,,
50,Sn IV,Sn,IV,3,Tin,Ag,[Kr].4d10.5s,4d10.5s,2S<1/2>,4d10 1S<0>,40.74,0.04,,,,,,,,,,,
50,Sn V,Sn,V,4,Tin,Pd,[Kr].4d10,4d10,1S0,4d9 2D<5/2>,77.03,0.04,,,,,,,,,,,
50,Sn VI,Sn,VI,5,Tin,Rh,[Kr].4d9,4d9,2D<5/2>,4d8 3F<4>,94,2,,,,,,,,,,,
50,Sn VII,Sn,VII,6,Tin,Ru,[Kr].4d8,4d8,3F<4>,4d7 4F<9/2>,112.9,2,,,,,,,,,,,
50,Sn VIII,Sn,VIII,7,Tin,Tc,[Kr].4d7,4d7,4F<9/2>,4d6 5D<4>,135,2.1,,,,,,,,,,,
50,Sn IX,Sn,IX,8,Tin,Mo,[Kr].4d6,4d6,5D<4>,4d5 6S<5/2>,156,2.2,,,,,,,,,,,
50,Sn X,Sn,X,9,Tin,Nb,[Kr].4d5,4d5,6S<5/2>,4d4 5D<0>,184,2.2,,,,,,,,,,,
50,Sn XI,Sn,XI,10,Tin,Zr,[Kr].4d4,4d4,5D0,4d3 4F<3/2>,208,2.4,,,,,,,,,,,
50,Sn XII,Sn,XII,11,Tin,Y,[Kr].4d3,4d3,4F<3/2>,4d2 3F<2>,232,2.5,,,,,,,,,,,
50,Sn XIII,Sn,XIII,12,Tin,Sr,[Kr].4d2,4d2,3F<2>,4d 2D<3/2>,258,3,,,,,,,,,,,
50,Sn XIV,Sn,XIV,13,Tin,Rb,[Kr].4d,4d,2D<3/2>,4p6 1S<0>,282,3,,,,,,,,,,,
50,Sn XV,Sn,XV,14,Tin,Kr,[Ar].3d10.4s2.4p6,4p6,1S0,4p5 2P*<3/2>,379,3,,,,,,,,,,,
50,Sn XVI,Sn,XVI,15,Tin,Br,[Ar].3d10.4s2.4p5,4p5,2P*<3/2>,4p4 3P<2>,407,3,,,,,,,,,,,
50,Sn XVII,Sn,XVII,16,Tin,Se,[Ar].3d10.4s2.4p4,4p4,3P<2>,4p3 4S*<3/2>,437,3,,,,,,,,,,,
50,Sn XVIII,Sn,XVIII,17,Tin,As,[Ar].3d10.4s2.4p3,4p3,4S*<3/2>,4p2 3P<0>,466,3,,,,,,,,,,,
50,Sn XIX,Sn,XIX,18,Tin,Ge,[Ar].3d10.4s2.4p2,4p2,3P0,4p 2P*<1/2>,506,3,,,,,,,,,,,
50,Sn XX,Sn,XX,19,Tin,Ga,[Ar].3d10.4s2.4p,4p,2P*<1/2>,4s2 1S<0>,537,4,,,,,,,,,,,
50,Sn XXI,Sn,XXI,20,Tin,Zn,[Ar].3d10.4s2,4s2,1S0,4s 2S<1/2>,608,4,,,,,,,,,,,
50,Sn XXII,Sn,XXII,21,Tin,Cu,[Ar].3d10.4s,4s,2S<1/2>,3d10 1S<0>,642.35,0.22,,,,,,,,,,,
50,Sn XXIII,Sn,XXIII,22,Tin,Ni,[Ar].3d10,3d10,1S0,3d9 2D<5/2>,1127,4,,,,,,,,,,,
50,Sn XXIV,Sn,XXIV,23,Tin,Co,[Ar].3d9,3d9,2D<5/2>,3d8 3F<4>,1195,4,,,,,,,,,,,
50,Sn XXV,Sn,XXV,24,Tin,Fe,[Ar].3d8,3d8,3F<4>,3d7 4F<9/2>,1269,4,,,,,,,,,,,
50,Sn XXVI,Sn,XXVI,25,Tin,Mn,[Ar].3d7,3d7,4F<9/2>,3d6 5D<4>,1347,4,,,,,,,,,,,
50,Sn XXVII,Sn,XXVII,26,Tin,Cr,[Ar].3d6,3d6,5D<4>,3d5 6S<5/2>,1421,4,,,,,,,,,,,
50,Sn XXVIII,Sn,XXVIII,27,Tin,V,[Ar].3d5,3d5,6S<5/2>,3d4 5D<0>,1508,4,,,,,,,,,,,
50,Sn XXIX,Sn,XXIX,28,Tin,Ti,[Ar].3d4,3d4,5D0,3d3 4F<3/2>,1596,4,,,,,,,,,,,
50,Sn XXX,Sn,XXX,29,Tin,Sc,[Ar].3d3,3d3,4F<3/2>,3d2 3F<2>,1676,4,,,,,,,,,,,
50,Sn XXXI,Sn,XXXI,30,Tin,Ca,[Ar].3d2,3d2,3F<2>,3d 2D<3/2>,1763,4,,,,,,,,,,,
50,Sn XXXII,Sn,XXXII,31,Tin,K,[Ar].3d,3d,2D<3/2>,3p6 1S<0>,1844,4,,,,,,,,,,,
50,Sn XXXIII,Sn,XXXIII,32,Tin,Ar,[Ne].3s2.3p6,3p6,1S0,3p5 2P*<3/2>,2074,6,,,,,,,,,,,
50,Sn XXXIV,Sn,XXXIV,33,Tin,Cl,[Ne].3s2.3p5,3p5,2P*<3/2>,3p4 3P<2>,2142.1,2.1,,,,,,,,,,,
50,Sn XXXV,Sn,XXXV,34,Tin,S,[Ne].3s2.3p4,3p4,3P<2>,3p3 4S*<3/2>,2227,3,,,,,,,,,,,
50,Sn XXXVI,Sn,XXXVI,35,Tin,P,[Ne].3s2.3p3,3p3,4S*<3/2>,3p2 3P<0>,2326,9,,,,,,,,,,,
50,Sn XXXVII,Sn,XXXVII,36,Tin,Si,[Ne].3s2.3p2,3p2,3P0,3p 2P*<1/2>,2443,5,,,,,,,,,,,
50,Sn XXXVIII,Sn,XXXVIII,37,Tin,Al,[Ne].3s2.3p,3p,2P*<1/2>,3s2 1S<0>,2499,11,,,,,,,,,,,
50,Sn XXXIX,Sn,XXXIX,38,Tin,Mg,[Ne].3s2,3s2,1S0,3s 2S<1/2>,2687,4,,,,,,,,,,,
50,Sn XL,Sn,XL,39,Tin,Na,[Ne].3s,3s,2S<1/2>,2p6 1S<0>,2762.49,0.08,,,,,,,,,,,
50,Sn XLI,Sn,XLI,40,Tin,Ne,1s2.2s2.2p6,2p6,1S0,2p5 2P*<3/2>,6421,3,,,,,,,,,,,
50,Sn XLII,Sn,XLII,41,Tin,F,1s2.2s2.2p5,2p5,2P*<3/2>,2p4 3P<2>,6631,10,,,,,,,,,,,
50,Sn XLIII,Sn,XLIII,42,Tin,O,1s2.2s2.2p4,2p4,3P<2>,"2p2<1/2>.2p<3/2> (0,3/2)*<3/2>",6859,13,,,,,,,,,,,
50,Sn XLIV,Sn,XLIV,43,Tin,N,1s2.2s2.2p3,2p2<1/2>.2p<3/2>,"(0,3/2)*<3/2>",2p2 3P<0>,7080,50,,,,,,,,,,,
50,Sn XLV,Sn,XLV,44,Tin,C,1s2.2s2.2p2,2p2,3P0,2p 2P*<1/2>,7531,8,,,,,,,,,,,
50,Sn XLVI,Sn,XLVI,45,Tin,B,1s2.2s2.2p,2p,2P*<1/2>,2s2 1S<0>,7790,4,,,,,,,,,,,
50,Sn XLVII,Sn,XLVII,46,Tin,Be,1s2.2s2,2s2,1S0,2s 2S<1/2>,8103,7,,,,,,,,,,,
50,Sn XLVIII,Sn,XLVIII,47,Tin,Li,1s2.2s,1s2.2s,2S<1/2>,1s2 1S<0>,8306.95,0.04,,,,,,,,,,,
50,Sn XLIX,Sn,XLIX,48,Tin,He,1s2,1s2,1S0,1s 2S<1/2>,34257.148,0.022,,,,,,,,,,,
50,Sn L,Sn,L,49,Tin,H,1s,1s,2S<1/2>,,35192.501,0.011,,,,,,,,,,,
51,Sb I,Sb,I,0,Antimony,Sb,[Cd].5p3,5p3,4S*<3/2>,5s2.5p2 3P<0>,8.608389,0.000012,,,,,,,,,,,
51,Sb II,Sb,II,1,Antimony,Sn,[Cd].5p2,5s2.5p2,3P0,5s2.5p 2P<1/2>,16.626,0.025,,,,,,,,,,,
51,Sb III,Sb,III,2,Antimony,In,[Cd].5p,5s2.5p,2P*<1/2>,5s2 1S<0>,25.3235,,,,,,,,,,,,
51,Sb IV,Sb,IV,3,Antimony,Cd,[Kr].4d10.5s2,5s2,1S0,5s 2S<1/2>,43.804,0.025,,,,,,,,,,,
51,Sb V,Sb,V,4,Antimony,Ag,[Kr].4d10.5s,4d10.5s,2S<1/2>,4d10 1S<0>,55,0.1,,,,,,,,,,,
51,Sb VI,Sb,VI,5,Antimony,Pd,[Kr].4d10,4d10,1S0,4d9 2D<5/2>,99.51,0.05,,,,,,,,,,,
51,Sb VII,Sb,VII,6,Antimony,Rh,[Kr].4d9,4d9,2D<5/2>,4d8 3F<4>,117,2,,,,,,,,,,,
51,Sb VIII,Sb,VIII,7,Antimony,Ru,[Kr].4d8,4d8,3F<4>,4d7 4F<9/2>,139,2.1,,,,,,,,,,,
51,Sb IX,Sb,IX,8,Antimony,Tc,[Kr].4d7,4d7,4F<9/2>,4d6 5D<4>,162,2.2,,,,,,,,,,,
51,Sb X,Sb,X,9,Antimony,Mo,[Kr].4d6,4d6,5D<4>,4d5 6S<5/2>,185,2.2,,,,,,,,,,,
51,Sb XI,Sb,XI,10,Antimony,Nb,[Kr].4d5,4d5,6S<5/2>,4d4 5D<0>,214,2.4,,,,,,,,,,,
51,Sb XII,Sb,XII,11,Antimony,Zr,[Kr].4d4,4d4,5D0,4d3 4F<3/2>,238,2.5,,,,,,,,,,,
51,Sb XIII,Sb,XIII,12,Antimony,Y,[Kr].4d3,4d3,4F<3/2>,4d2 3F<2>,265,3,,,,,,,,,,,
51,Sb XIV,Sb,XIV,13,Antimony,Sr,[Kr].4d2,4d2,3F<2>,4d 2D<3/2>,292,3,,,,,,,,,,,
51,Sb XV,Sb,XV,14,Antimony,Rb,[Kr].4d,4d,2D<3/2>,4p6 1S<0>,317,3,,,,,,,,,,,
51,Sb XVI,Sb,XVI,15,Antimony,Kr,[Ar].3d10.4s2.4p6,4p6,1S0,4p5 2P*<3/2>,420,3,,,,,,,,,,,
51,Sb XVII,Sb,XVII,16,Antimony,Br,[Ar].3d10.4s2.4p5,4p5,2P*<3/2>,4p4 3P<2>,447,3,,,,,,,,,,,
51,Sb XVIII,Sb,XVIII,17,Antimony,Se,[Ar].3d10.4s2.4p4,4p4,3P<2>,4p3 4S*<3/2>,479,3,,,,,,,,,,,
51,Sb XIX,Sb,XIX,18,Antimony,As,[Ar].3d10.4s2.4p3,4p3,4S*<3/2>,4p2 3P<0>,510,3,,,,,,,,,,,
51,Sb XX,Sb,XX,19,Antimony,Ge,[Ar].3d10.4s2.4p2,4p2,3P0,4p 2P*<1/2>,552,4,,,,,,,,,,,
51,Sb XXI,Sb,XXI,20,Antimony,Ga,[Ar].3d10.4s2.4p,4p,2P*<1/2>,4s2 1S<0>,584,4,,,,,,,,,,,
51,Sb XXII,Sb,XXII,21,Antimony,Zn,[Ar].3d10.4s2,4s2,1S0,4s 2S<1/2>,657,4,,,,,,,,,,,
51,Sb XXIII,Sb,XXIII,22,Antimony,Cu,[Ar].3d10.4s,4s,2S<1/2>,3d10 1S<0>,693.26,0.24,,,,,,,,,,,
51,Sb XXIV,Sb,XXIV,23,Antimony,Ni,[Ar].3d10,3d10,1S0,3d9 2D<5/2>,1214,4,,,,,,,,,,,
51,Sb XXV,Sb,XXV,24,Antimony,Co,[Ar].3d9,3d9,2D<5/2>,3d8 3F<4>,1285,4,,,,,,,,,,,
51,Sb XXVI,Sb,XXVI,25,Antimony,Fe,[Ar].3d8,3d8,3F<4>,3d7 4F<9/2>,1360,4,,,,,,,,,,,
51,Sb XXVII,Sb,XXVII,26,Antimony,Mn,[Ar].3d7,3d7,4F<9/2>,3d6 5D<4>,1441,4,,,,,,,,,,,
51,Sb XXVIII,Sb,XXVIII,27,Antimony,Cr,[Ar].3d6,3d6,5D<4>,3d5 6S<5/2>,1518,4,,,,,,,,,,,
51,Sb XXIX,Sb,XXIX,28,Antimony,V,[Ar].3d5,3d5,6S<5/2>,3d4 5D<0>,1606,4,,,,,,,,,,,
51,Sb XXX,Sb,XXX,29,Antimony,Ti,[Ar].3d4,3d4,5D0,3d3 4F<3/2>,1698,4,,,,,,,,,,,
51,Sb XXXI,Sb,XXXI,30,Antimony,Sc,[Ar].3d3,3d3,4F<3/2>,3d2 3F<2>,1781,4,,,,,,,,,,,
51,Sb XXXII,Sb,XXXII,31,Antimony,Ca,[Ar].3d2,3d2,3F<2>,3d 2D<3/2>,1869,4,,,,,,,,,,,
51,Sb XXXIII,Sb,XXXIII,32,Antimony,K,[Ar].3d,3d,2D<3/2>,3p6 1S<0>,1954,4,,,,,,,,,,,
51,Sb XXXIV,Sb,XXXIV,33,Antimony,Ar,[Ne].3s2.3p6,3p6,1S0,3p5 2P*<3/2>,2190,5,,,,,,,,,,,
51,Sb XXXV,Sb,XXXV,34,Antimony,Cl,[Ne].3s2.3p5,3p5,2P*<3/2>,3p4 3P<2>,2266,5,,,,,,,,,,,
51,Sb XXXVI,Sb,XXXVI,35,Antimony,S,[Ne].3s2.3p4,3p4,3P<2>,3p3 4S*<3/2>,2349,5,,,,,,,,,,,
51,Sb XXXVII,Sb,XXXVII,36,Antimony,P,[Ne].3s2.3p3,3p3,4S*<3/2>,3p2 3P<0>,2428,5,,,,,,,,,,,
51,Sb XXXVIII,Sb,XXXVIII,37,Antimony,Si,[Ne].3s2.3p2,3p2,3P0,3p 2P*<1/2>,2567,4,,,,,,,,,,,
51,Sb XXXIX,Sb,XXXIX,38,Antimony,Al,[Ne].3s2.3p,3p,2P*<1/2>,3s2 1S<0>,2654,4,,,,,,,,,,,
51,Sb XL,Sb,XL,39,Antimony,Mg,[Ne].3s2,3s2,1S0,3s 2S<1/2>,2815,4,,,,,,,,,,,
51,Sb XLI,Sb,XLI,40,Antimony,Na,[Ne].3s,3s,2S<1/2>,2p6 1S<0>,2900,0.5,,,,,,,,,,,
51,Sb XLII,Sb,XLII,41,Antimony,Ne,1s2.2s2.2p6,2p6,1S0,2p5 2P*<3/2>,6714,4,,,,,,,,,,,
51,Sb XLIII,Sb,XLIII,42,Antimony,F,1s2.2s2.2p5,2p5,2P*<3/2>,2p4 3P<2>,6929,4,,,,,,,,,,,
51,Sb XLIV,Sb,XLIV,43,Antimony,O,1s2.2s2.2p4,2p4,3P<2>,"2p2<1/2>.2p<3/2> (0,3/2)*<3/2>",7167,4,,,,,,,,,,,
51,Sb XLV,Sb,XLV,44,Antimony,N,1s2.2s2.2p3,2p2<1/2>.2p<3/2>,"(0,3/2)*<3/2>",2p2 3P<0>,7390,4,,,,,,,,,,,
51,Sb XLVI,Sb,XLVI,45,Antimony,C,1s2.2s2.2p2,2p2,3P0,2p 2P*<1/2>,7887,4,,,,,,,,,,,
51,Sb XLVII,Sb,XLVII,46,Antimony,B,1s2.2s2.2p,2p,2P*<1/2>,2s2 1S<0>,8140,4,,,,,,,,,,,
51,Sb XLVIII,Sb,XLVIII,47,Antimony,Be,1s2.2s2,2s2,1S0,2s 2S<1/2>,8455,4,,,,,,,,,,,
51,Sb XLIX,Sb,XLIX,48,Antimony,Li,1s2.2s,1s2.2s,2S<1/2>,1s2 1S<0>,8669.48,0.04,,,,,,,,,,,
51,Sb L,Sb,L,49,Antimony,He,1s2,1s2,1S0,1s 2S<1/2>,35710.03,0.025,,,,,,,,,,,
51,Sb LI,Sb,LI,50,Antimony,H,1s,1s,2S<1/2>,,36668.183,0.012,,,,,,,,,,,
52,Te I,Te,I,0,Tellurium,Te,[Cd].5p4,5p4,3P<2>,5s2.5p3 4S*<3/2>,9.009808,0.000006,,,,,,,,,,,
52,Te II,Te,II,1,Tellurium,Sb,[Cd].5p3,5s2.5p3,4S*<3/2>,5s2.5p2 3P<0>,18.6,0.4,,,,,,,,,,,
52,Te III,Te,III,2,Tellurium,Sn,[Cd].5p2,5s2.5p2,3P0,5s2.5p 2P<1/2>,27.84,0.04,,,,,,,,,,,
52,Te IV,Te,IV,3,Tellurium,In,[Cd].5p,5s2.5p,2P*<1/2>,5s2 1S<0>,37.4155,0.0012,,,,,,,,,,,
52,Te V,Te,V,4,Tellurium,Cd,[Kr].4d10.5s2,5s2,1S0,5s 2S<1/2>,59.3,0.9,,,,,,,,,,,
52,Te VI,Te,VI,5,Tellurium,Ag,[Kr].4d10.5s,4d10.5s,2S<1/2>,4d10 1S<0>,69.1,2,,,,,,,,,,,
52,Te VII,Te,VII,6,Tellurium,Pd,[Kr].4d10,4d10,1S0,4d9 2D<5/2>,124.2,0.06,,,,,,,,,,,
52,Te VIII,Te,VIII,7,Tellurium,Rh,[Kr].4d9,4d9,2D<5/2>,4d8 3F<4>,143,2.1,,,,,,,,,,,
52,Te IX,Te,IX,8,Tellurium,Ru,[Kr].4d8,4d8,3F<4>,4d7 4F<9/2>,167,2.2,,,,,,,,,,,
52,Te X,Te,X,9,Tellurium,Tc,[Kr].4d7,4d7,4F<9/2>,4d6 5D<4>,191.1,2.2,,,,,,,,,,,
52,Te XI,Te,XI,10,Tellurium,Mo,[Kr].4d6,4d6,5D<4>,4d5 6S<5/2>,215,2.4,,,,,,,,,,,
52,Te XII,Te,XII,11,Tellurium,Nb,[Kr].4d5,4d5,6S<5/2>,4d4 5D<0>,245,2.5,,,,,,,,,,,
52,Te XIII,Te,XIII,12,Tellurium,Zr,[Kr].4d4,4d4,5D0,4d3 4F<3/2>,272,3,,,,,,,,,,,
52,Te XIV,Te,XIV,13,Tellurium,Y,[Kr].4d3,4d3,4F<3/2>,4d2 3F<2>,299,3,,,,,,,,,,,
52,Te XV,Te,XV,14,Tellurium,Sr,[Kr].4d2,4d2,3F<2>,4d 2D<3/2>,328,3,,,,,,,,,,,
52,Te XVI,Te,XVI,15,Tellurium,Rb,[Kr].4d,4d,2D<3/2>,4p6 1S<0>,354,3,,,,,,,,,,,
52,Te XVII,Te,XVII,16,Tellurium,Kr,[Ar].3d10.4s2.4p6,4p6,1S0,4p5 2P*<3/2>,461,3,,,,,,,,,,,
52,Te XVIII,Te,XVIII,17,Tellurium,Br,[Ar].3d10.4s2.4p5,4p5,2P*<3/2>,4p4 3P<2>,491,3,,,,,,,,,,,
52,Te XIX,Te,XIX,18,Tellurium,Se,[Ar].3d10.4s2.4p4,4p4,3P<2>,4p3 4S*<3/2>,522,3,,,,,,,,,,,
52,Te XX,Te,XX,19,Tellurium,As,[Ar].3d10.4s2.4p3,4p3,4S*<3/2>,4p2 3P<0>,555,4,,,,,,,,,,,
52,Te XXI,Te,XXI,20,Tellurium,Ge,[Ar].3d10.4s2.4p2,4p2,3P0,4p 2P*<1/2>,599,4,,,,,,,,,,,
52,Te XXII,Te,XXII,21,Tellurium,Ga,[Ar].3d10.4s2.4p,4p,2P*<1/2>,4s2 1S<0>,633,4,,,,,,,,,,,
52,Te XXIII,Te,XXIII,22,Tellurium,Zn,[Ar].3d10.4s2,4s2,1S0,4s 2S<1/2>,709,4,,,,,,,,,,,
52,Te XXIV,Te,XXIV,23,Tellurium,Cu,[Ar].3d10.4s,4s,2S<1/2>,3d10 1S<0>,746.12,0.25,,,,,,,,,,,
52,Te XXV,Te,XXV,24,Tellurium,Ni,[Ar].3d10,3d10,1S0,3d9 2D<5/2>,1304,4,,,,,,,,,,,
52,Te XXVI,Te,XXVI,25,Tellurium,Co,[Ar].3d9,3d9,2D<5/2>,3d8 3F<4>,1377,4,,,,,,,,,,,
52,Te XXVII,Te,XXVII,26,Tellurium,Fe,[Ar].3d8,3d8,3F<4>,3d7 4F<9/2>,1455,4,,,,,,,,,,,
52,Te XXVIII,Te,XXVIII,27,Tellurium,Mn,[Ar].3d7,3d7,4F<9/2>,3d6 5D<4>,1538,4,,,,,,,,,,,
52,Te XXIX,Te,XXIX,28,Tellurium,Cr,[Ar].3d6,3d6,5D<4>,3d5 6S<5/2>,1618,4,,,,,,,,,,,
52,Te XXX,Te,XXX,29,Tellurium,V,[Ar].3d5,3d5,6S<5/2>,3d4 5D<0>,1707,4,,,,,,,,,,,
52,Te XXXI,Te,XXXI,30,Tellurium,Ti,[Ar].3d4,3d4,5D0,3d3 4F<3/2>,1803,4,,,,,,,,,,,
52,Te XXXII,Te,XXXII,31,Tellurium,Sc,[Ar].3d3,3d3,4F<3/2>,3d2 3F<2>,1889,4,,,,,,,,,,,
52,Te XXXIII,Te,XXXIII,32,Tellurium,Ca,[Ar].3d2,3d2,3F<2>,3d 2D<3/2>,1979,4,,,,,,,,,,,
52,Te XXXIV,Te,XXXIV,33,Tellurium,K,[Ar].3d,3d,2D<3/2>,3p6 1S<0>,2066,5,,,,,,,,,,,
52,Te XXXV,Te,XXXV,34,Tellurium,Ar,[Ne].3s2.3p6,3p6,1S0,3p5 2P*<3/2>,2309,5,,,,,,,,,,,
52,Te XXXVI,Te,XXXVI,35,Tellurium,Cl,[Ne].3s2.3p5,3p5,2P*<3/2>,3p4 3P<2>,2386,5,,,,,,,,,,,
52,Te XXXVII,Te,XXXVII,36,Tellurium,S,[Ne].3s2.3p4,3p4,3P<2>,3p3 4S*<3/2>,2472,5,,,,,,,,,,,
52,Te XXXVIII,Te,XXXVIII,37,Tellurium,P,[Ne].3s2.3p3,3p3,4S*<3/2>,3p2 3P<0>,2552,4,,,,,,,,,,,
52,Te XXXIX,Te,XXXIX,38,Tellurium,Si,[Ne].3s2.3p2,3p2,3P0,3p 2P*<1/2>,2700,4,,,,,,,,,,,
52,Te XL,Te,XL,39,Tellurium,Al,[Ne].3s2.3p,3p,2P*<1/2>,3s2 1S<0>,2788,4,,,,,,,,,,,
52,Te XLI,Te,XLI,40,Tellurium,Mg,[Ne].3s2,3s2,1S0,3s 2S<1/2>,2954,4,,,,,,,,,,,
52,Te XLII,Te,XLII,41,Tellurium,Na,[Ne].3s,3s,2S<1/2>,2p6 1S<0>,3041,0.5,,,,,,,,,,,
52,Te XLIII,Te,XLIII,42,Tellurium,Ne,1s2.2s2.2p6,2p6,1S0,2p5 2P*<3/2>,7022,4,,,,,,,,,,,
52,Te XLIV,Te,XLIV,43,Tellurium,F,1s2.2s2.2p5,2p5,2P*<3/2>,2p4 3P<2>,7243,4,,,,,,,,,,,
52,Te XLV,Te,XLV,44,Tellurium,O,1s2.2s2.2p4,2p4,3P<2>,"2p2<1/2>.2p<3/2> (0,3/2)*<3/2>",7485,4,,,,,,,,,,,
52,Te XLVI,Te,XLVI,45,Tellurium,N,1s2.2s2.2p3,2p2<1/2>.2p<3/2>,"(0,3/2)*<3/2>",2p2 3P<0>,7714,4,,,,,,,,,,,
52,Te XLVII,Te,XLVII,46,Tellurium,C,1s2.2s2.2p2,2p2,3P0,2p 2P*<1/2>,8240,4,,,,,,,,,,,