At. num,Sp. Name,Element,Valence,Ion Charge,El. Name,Isoel. Seq.,Ground Shells (a),Ground Config.,Ground Level,Ionized Level,Ionization Energy (b) (eV),Uncertainty (c) (eV),,,,,,,,,,,
90,Th LXXXIX,Th,LXXXIX,88,Thorium,He,1s2,1s2,1S0,1s 2S<1/2>,123091,0.6,,,,,,,,,,,
90,Th XC,Th,XC,89,Thorium,H,1s,1s,2S<1/2>,,125250.3,0.7,,,,,,,,,,,
91,Pa I,Pa,I,0,Protactinium,Pa,[Rn].5f2.6d.7s2,5f2.6d.7s2,4K<11/2>,5f2.7s2 3H<4>,5.89,0.12,,,,,,,,,,,
91,Pa II,Pa,II,1,Protactinium,Th,[Rn].5f2.7s2,5f2.7s2,3H<4>,5f2.6d 4I<11/2>,11.9,0.4,,,,,,,,,,,
91,Pa III,Pa,III,2,Protactinium,Ac,[Rn].5f2.6d,5f2.6p6.6d,4I<11/2>,5f2.6p6 3H<4>,18.6,0.4,,,,,,,,,,,
91,Pa IV,Pa,IV,3,Protactinium,Ra,[Rn].5f2,5f2.6p6,3H<4>,5f.6p6 2F*<5/2>,30.9,0.4,,,,,,,,,,,
91,Pa V,Pa,V,4,Protactinium,Fr,[Rn].5f,5f.6p6,2F*<5/2>,6p6 1S<0>,44.3,0.4,,,,,,,,,,,
91,Pa VI,Pa,VI,5,Protactinium,Rn,[Hg].6p6,6p6,1S0,6p5 2P*<3/2>,72,2,,,,,,,,,,,
91,Pa VII,Pa,VII,6,Protactinium,At,[Hg].6p5,6p5,2P*<3/2>,6p4 3P<2>,85.1,2,,,,,,,,,,,
91,Pa VIII,Pa,VIII,7,Protactinium,Po,[Hg].6p4,6p4,3P<2>,6p3 4S*<3/2>,98.9,2.1,,,,,,,,,,,
91,Pa IX,Pa,IX,8,Protactinium,Bi,[Hg].6p3,6p3,4S*<3/2>,6p2 3P<0>,111,2.2,,,,,,,,,,,
91,Pa X,Pa,X,9,Protactinium,Pb,[Hg].6p2,6p2,3P0,6p 2P*<1/2>,137,2.2,,,,,,,,,,,
91,Pa XI,Pa,XI,10,Protactinium,Tl,[Hg].6p,6p,2P*<1/2>,6s2 1S<0>,153,2.4,,,,,,,,,,,
91,Pa XII,Pa,XII,11,Protactinium,Hg,[Xe].4f14.5d10.6s2,6s2,1S0,6s 2S<1/2>,187,2.5,,,,,,,,,,,
91,Pa XIII,Pa,XIII,12,Protactinium,Au,[Xe].4f14.5d10.6s,6s,2S<1/2>,5d10 1S<0>,203,3,,,,,,,,,,,
91,Pa XIV,Pa,XIV,13,Protactinium,Pt,[Xe].4f14.5d10,5d10,1S0,5d9 2D<5/2>,292,3,,,,,,,,,,,
91,Pa XV,Pa,XV,14,Protactinium,Ir,[Xe].4f14.5d9,5d9,2D<5/2>,5d8 3F<4>,316,3,,,,,,,,,,,
91,Pa XVI,Pa,XVI,15,Protactinium,Os,[Xe].4f14.5d8,5d8,3F<4>,5d7 4F<9/2>,342,3,,,,,,,,,,,
91,Pa XVII,Pa,XVII,16,Protactinium,Re,[Xe].4f14.5d7,5d7,4F<9/2>,5d6 5D<4>,369,3,,,,,,,,,,,
91,Pa XVIII,Pa,XVIII,17,Protactinium,W,[Xe].4f14.5d6,5d6,5D<4>,5d5 6S<5/2>,395,3,,,,,,,,,,,
91,Pa XIX,Pa,XIX,18,Protactinium,Ta,[Xe].4f14.5d5,5d5,6S<5/2>,5d4 5D<0>,423,3,,,,,,,,,,,
91,Pa XX,Pa,XX,19,Protactinium,Hf,[Xe].4f14.5d4,5d4,5D0,5d3 4F<3/2>,460,4,,,,,,,,,,,
91,Pa XXI,Pa,XXI,20,Protactinium,Lu,[Xe].4f14.5d3,5d3,4F<3/2>,5d2 3F<2>,488,4,,,,,,,,,,,
91,Pa XXII,Pa,XXII,21,Protactinium,Yb,[Xe].4f14.5d2,5d2,3F<2>,5d 2D<3/2>,518,4,,,,,,,,,,,
91,Pa XXIII,Pa,XXIII,22,Protactinium,Tm,[Xe].4f14.5d,5d,2D<3/2>,4f14 1S<0>,546,4,,,,,,,,,,,
91,Pa XXIV,Pa,XXIV,23,Protactinium,Er,[Xe].4f14,4f14,1S0,4f14.5p5 2P*<3/2>,690,40,,,,,,,,,,,
91,Pa XXV,Pa,XXV,24,Protactinium,Ho,[Cd].4f14.5p5,4f14.5p5,2P*<3/2>,4f14.5p4 3P<2>,720,40,,,,,,,,,,,
91,Pa XXVI,Pa,XXVI,25,Protactinium,Dy,[Cd].4f14.5p4,4f14.5p4,3P<2>,4f14.5p3 2P*<3/2>,760,40,,,,,,,,,,,
91,Pa XXVII,Pa,XXVII,26,Protactinium,Tb,[Cd].4f14.5p3,4f14.5p3,2P*<3/2>,4f14.5p2 3P<0>,790,40,,,,,,,,,,,
91,Pa XXVIII,Pa,XXVIII,27,Protactinium,Gd,[Cd].4f14.5p2,4f14.5p2,3P0,4f14.5p 2P*<1/2>,880,40,,,,,,,,,,,
91,Pa XXIX,Pa,XXIX,28,Protactinium,Eu,[Cd].4f14.5p,4f14.5p,2P*<1/2>,4f14 1S<0>,920,50,,,,,,,,,,,
91,Pa XXX,Pa,XXX,29,Protactinium,Sm,[Cd].4f14,4f14,1S0,4f14.5s 2S<1/2>,1020,50,,,,,,,,,,,
91,Pa XXXI,Pa,XXXI,30,Protactinium,Pm,[Kr].4d10.4f14.5s,4f14.5s,2S<1/2>,4f14 1S<0>,1060,50,,,,,,,,,,,
91,Pa XXXII,Pa,XXXII,31,Protactinium,Nd,[Kr].4d10.4f14,4f14,1S0,4f13 2F*<7/2>,1150,60,,,,,,,,,,,
91,Pa XXXIII,Pa,XXXIII,32,Protactinium,Pr,[Kr].4d10.4f13,4f13,2F*<7/2>,4f12,1220,60,,,,,,,,,,,
91,Pa XXXIV,Pa,XXXIV,33,Protactinium,Ce,[Kr].4d10.4f12,4f12,,4f11 4I*<15/2>,1300,60,,,,,,,,,,,
91,Pa XXXV,Pa,XXXV,34,Protactinium,La,[Kr].4d10.4f11,4f11,4I*<15/2>,4f10 5I<8>,1370,70,,,,,,,,,,,
91,Pa XXXVI,Pa,XXXVI,35,Protactinium,Ba,[Kr].4d10.4f10,4f10,5I<8>,4f9 6H*<15/2>,1450,70,,,,,,,,,,,
91,Pa XXXVII,Pa,XXXVII,36,Protactinium,Cs,[Kr].4d10.4f9,4f9,6H*<15/2>,4f8 7F<6>,1520,80,,,,,,,,,,,
91,Pa XXXVIII,Pa,XXXVIII,37,Protactinium,Xe,[Kr].4d10.4f8,4f8,7F<6>,4f7 8S*<7/2>,1600,80,,,,,,,,,,,
91,Pa XXXIX,Pa,XXXIX,38,Protactinium,I,[Kr].4d10.4f7,4f7,8S*<7/2>,4f6 7F<0>,1670,80,,,,,,,,,,,
91,Pa XL,Pa,XL,39,Protactinium,Te,[Kr].4d10.4f6,4f6,7F0,4f5 6H*<5/2>,1760,90,,,,,,,,,,,
91,Pa XLI,Pa,XLI,40,Protactinium,Sb,[Kr].4d10.4f5,4f5,6H*<5/2>,4f4 5I<4>,1830,90,,,,,,,,,,,
91,Pa XLII,Pa,XLII,41,Protactinium,Sn,[Kr].4d10.4f4,4f4,5I<4>,4f3 4I*<9/2>,1910,100,,,,,,,,,,,
91,Pa XLIII,Pa,XLIII,42,Protactinium,In,[Kr].4d10.4f3,4f3,4I*<9/2>,4f2 3H<4>,1980,100,,,,,,,,,,,
91,Pa XLIV,Pa,XLIV,43,Protactinium,Cd,[Kr].4d10.4f2,4f2,3H<4>,4f 2F*<5/2>,2060,100,,,,,,,,,,,
91,Pa XLV,Pa,XLV,44,Protactinium,Ag,[Kr].4d10.4f,4f,2F*<5/2>,4d10 1S<0>,2130,110,,,,,,,,,,,
91,Pa XLVI,Pa,XLVI,45,Protactinium,Pd,[Kr].4d10,4d10,1S0,4d9 2D<5/2>,2483,4,,,,,,,,,,,
91,Pa XLVII,Pa,XLVII,46,Protactinium,Rh,[Kr].4d9,4d9,2D<5/2>,4d8 3F<4>,2550,4,,,,,,,,,,,
91,Pa XLVIII,Pa,XLVIII,47,Protactinium,Ru,[Kr].4d8,4d8,3F<4>,4d7 4F<9/2>,2620,4,,,,,,,,,,,
91,Pa XLIX,Pa,XLIX,48,Protactinium,Tc,[Kr].4d7,4d7,4F<9/2>,4d6 5D<4>,2696,4,,,,,,,,,,,
91,Pa L,Pa,L,49,Protactinium,Mo,[Kr].4d6,4d6,5D<4>,"4d-4.4d+ (0,5/2)<5/2>",2766,4,,,,,,,,,,,
91,Pa LI,Pa,LI,50,Protactinium,Nb,[Kr].4d5,4d-4.4d+,"(0,5/2)<5/2>",4d4 5D<0>,2837,4,,,,,,,,,,,
91,Pa LII,Pa,LII,51,Protactinium,Zr,[Kr].4d4,4d4,5D0,4d3 4F<3/2>,2968,4,,,,,,,,,,,
91,Pa LIII,Pa,LIII,52,Protactinium,Y,[Kr].4d3,4d3,4F<3/2>,4d2 3F<2>,3040,4,,,,,,,,,,,
91,Pa LIV,Pa,LIV,53,Protactinium,Sr,[Kr].4d2,4d2,3F<2>,4d 2D<3/2>,3119,5,,,,,,,,,,,
91,Pa LV,Pa,LV,54,Protactinium,Rb,[Kr].4d,4d,2D<3/2>,4p6 1S<0>,3193,5,,,,,,,,,,,
91,Pa LVI,Pa,LVI,55,Protactinium,Kr,[Ar].3d10.4s2.4p6,4p6,1S0,4p5 2P*<3/2>,3488,5,,,,,,,,,,,
91,Pa LVII,Pa,LVII,56,Protactinium,Br,[Ar].3d10.4s2.4p5,4p5,2P*<3/2>,4p4 3P<2>,3558,5,,,,,,,,,,,
91,Pa LVIII,Pa,LVIII,57,Protactinium,Se,[Ar].3d10.4s2.4p4,4p4,3P<2>,"4p-2.4p+ (0,3/2)*<3/2>",3637,6,,,,,,,,,,,
91,Pa LIX,Pa,LIX,58,Protactinium,As,[Ar].3d10.4s2.4p3,4p-2.4p+,"(0,3/2)*<3/2>",4p2 3P<0>,3709,6,,,,,,,,,,,
91,Pa LX,Pa,LX,59,Protactinium,Ge,[Ar].3d10.4s2.4p2,4p2,3P0,4p 2P*<1/2>,4077,7,,,,,,,,,,,
91,Pa LXI,Pa,LXI,60,Protactinium,Ga,[Ar].3d10.4s2.4p,4p,2P*<1/2>,4s2 1S<0>,4161,10,,,,,,,,,,,
91,Pa LXII,Pa,LXII,61,Protactinium,Zn,[Ar].3d10.4s2,4s2,1S0,4s 2S<1/2>,4370,12,,,,,,,,,,,
91,Pa LXIII,Pa,LXIII,62,Protactinium,Cu,[Ar].3d10.4s,4s,2S<1/2>,3d10 1S<0>,4454,5,,,,,,,,,,,
91,Pa LXIV,Pa,LXIV,63,Protactinium,Ni,[Ar].3d10,3d10,1S0,3d9 2D<5/2>,7181,19,,,,,,,,,,,
91,Pa LXV,Pa,LXV,64,Protactinium,Co,[Ar].3d9,3d9,2D<5/2>,3d8 3F<4>,7341,24,,,,,,,,,,,
91,Pa LXVI,Pa,LXVI,65,Protactinium,Fe,[Ar].3d8,3d8,3F<4>,3d7 4F<9/2>,7510,30,,,,,,,,,,,
91,Pa LXVII,Pa,LXVII,66,Protactinium,Mn,[Ar].3d7,3d7,4F<9/2>,"3d-4.3d+2 (0,4)<4>",7690,40,,,,,,,,,,,
91,Pa LXVIII,Pa,LXVIII,67,Protactinium,Cr,[Ar].3d6,3d-4.3d+2,"(0,4)<4>","3d-4.3d+ (0,5/2)<5/2>",7870,40,,,,,,,,,,,
91,Pa LXIX,Pa,LXIX,68,Protactinium,V,[Ar].3d5,3d-4.3d+,"(0,5/2)<5/2>",3d4 5D<0>,8040,50,,,,,,,,,,,
91,Pa LXX,Pa,LXX,69,Protactinium,Ti,[Ar].3d4,3d4,5D0,3d3 4F<3/2>,8410,50,,,,,,,,,,,
91,Pa LXXI,Pa,LXXI,70,Protactinium,Sc,[Ar].3d3,3d3,4F<3/2>,3d2 3F<2>,8590,60,,,,,,,,,,,
91,Pa LXXII,Pa,LXXII,71,Protactinium,Ca,[Ar].3d2,3d2,3F<2>,3d 2D<3/2>,8780,60,,,,,,,,,,,
91,Pa LXXIII,Pa,LXXIII,72,Protactinium,K,[Ar].3d,3d,2D<3/2>,3p6 1S<0>,8960,70,,,,,,,,,,,
91,Pa LXXIV,Pa,LXXIV,73,Protactinium,Ar,[Ne].3s2.3p6,3p6,1S0,3p5 2P*<3/2>,9460,90,,,,,,,,,,,
91,Pa LXXV,Pa,LXXV,74,Protactinium,Cl,[Ne].3s2.3p5,3p5,2P*<3/2>,3p4 3P<2>,9620,90,,,,,,,,,,,
91,Pa LXXVI,Pa,LXXVI,75,Protactinium,S,[Ne].3s2.3p4,3p4,3P<2>,3p3 2P*<3/2>,9790,100,,,,,,,,,,,
91,Pa LXXVII,Pa,LXXVII,76,Protactinium,P,[Ne].3s2.3p3,3p3,2P*<3/2>,3p2 3P<0>,9950,110,,,,,,,,,,,
91,Pa LXXVIII,Pa,LXXVIII,77,Protactinium,Si,[Ne].3s2.3p2,3p2,3P0,3p 2P*<1/2>,11100,120,,,,,,,,,,,
91,Pa LXXIX,Pa,LXXIX,78,Protactinium,Al,[Ne].3s2.3p,3p,2P*<1/2>,3s2 1S<0>,11290,120,,,,,,,,,,,
91,Pa LXXX,Pa,LXXX,79,Protactinium,Mg,[Ne].3s2,3s2,1S0,3s 2S<1/2>,11660,140,,,,,,,,,,,
91,Pa LXXXI,Pa,LXXXI,80,Protactinium,Na,[Ne].3s,3s,2S<1/2>,2p6 1S<0>,11840,150,,,,,,,,,,,
91,Pa LXXXII,Pa,LXXXII,81,Protactinium,Ne,1s2.2s2.2p6,2p6,1S0,2p5 2P*<3/2>,24660,160,,,,,,,,,,,
91,Pa LXXXIII,Pa,LXXXIII,82,Protactinium,F,1s2.2s2.2p5,2p5,2P*<3/2>,2p4 3P<2>,25080,170,,,,,,,,,,,
91,Pa LXXXIV,Pa,LXXXIV,83,Protactinium,O,1s2.2s2.2p4,2p4,3P<2>,"2p2<1/2>.2p<3/2> (0,3/2)*<3/2>",25540,190,,,,,,,,,,,
91,Pa LXXXV,Pa,LXXXV,84,Protactinium,N,1s2.2s2.2p3,2p2<1/2>.2p<3/2>,"(0,3/2)*<3/2>",2p2 3P<0>,25970,200,,,,,,,,,,,
91,Pa LXXXVI,Pa,LXXXVI,85,Protactinium,C,1s2.2s2.2p2,2p2,3P0,2p 2P*<1/2>,30230,220,,,,,,,,,,,
91,Pa LXXXVII,Pa,LXXXVII,86,Protactinium,B,1s2.2s2.2p,2p,2P*<1/2>,2s2 1S<0>,30800,240,,,,,,,,,,,
91,Pa LXXXVIII,Pa,LXXXVIII,87,Protactinium,Be,1s2.2s2,2s2,1S0,2s 2S<1/2>,31520,250,,,,,,,,,,,
91,Pa LXXXIX,Pa,LXXXIX,88,Protactinium,Li,1s2.2s,1s2.2s,2S<1/2>,1s2 1S<0>,31971.6,0.6,,,,,,,,,,,
91,Pa XC,Pa,XC,89,Protactinium,He,1s2,1s2,1S0,1s 2S<1/2>,126304.8,0.7,,,,,,,,,,,
91,Pa XCI,Pa,XCI,90,Protactinium,H,1s,1s,2S<1/2>,,128507,3,,,,,,,,,,,
92,U I,U,I,0,Uranium,U,[Rn].5f3.6d.7s2,5f3.6d.7s2,5L*<6>,5f3.7s2 4I*<9/2>,6.19405,0.00006,,,,,,,,,,,
92,U II,U,II,1,Uranium,Pa,[Rn].5f3.7s2,5f3.7s2,4I*<9/2>,5f4 5I<4>,11.6,0.4,,,,,,,,,,,
92,U III,U,III,2,Uranium,Th,[Rn].5f4,5f4,5I<4>,5f3.6p6 4I*<9/2>,19.8,0.3,,,,,,,,,,,
92,U IV,U,IV,3,Uranium,Ac,[Rn].5f3,5f3.6p6,4I*<9/2>,5f2.6p6 3H<4>,36.7,1,,,,,,,,,,,
92,U V,U,V,4,Uranium,Ra,[Rn].5f2,5f2.6p6,3H<4>,5f.6p6 2F*<5/2>,46,1.9,,,,,,,,,,,
92,U VI,U,VI,5,Uranium,Fr,[Rn].5f,5f.6p6,2F*<5/2>,6p6 1S<0>,62,1.6,,,,,,,,,,,
92,U VII,U,VII,6,Uranium,Rn,[Hg].6p6,6p6,1S0,6p5 2P*<3/2>,89,2,,,,,,,,,,,
92,U VIII,U,VIII,7,Uranium,At,[Hg].6p5,6p5,2P*<3/2>,6p4 3P<2>,101,2.1,,,,,,,,,,,
92,U IX,U,IX,8,Uranium,Po,[Hg].6p4,6p4,3P<2>,6p3 4S*<3/2>,116,2.2,,,,,,,,,,,
92,U X,U,X,9,Uranium,Bi,[Hg].6p3,6p3,4S*<3/2>,6p2 3P<0>,128.9,2.2,,,,,,,,,,,
92,U XI,U,XI,10,Uranium,Pb,[Hg].6p2,6p2,3P0,6p 2P*<1/2>,158,2.4,,,,,,,,,,,
92,U XII,U,XII,11,Uranium,Tl,[Hg].6p,6p,2P*<1/2>,6s2 1S<0>,173,2.5,,,,,,,,,,,
92,U XIII,U,XIII,12,Uranium,Hg,[Xe].4f14.5d10.6s2,6s2,1S0,6s 2S<1/2>,210,3,,,,,,,,,,,
92,U XIV,U,XIV,13,Uranium,Au,[Xe].4f14.5d10.6s,6s,2S<1/2>,5d10 1S<0>,227,3,,,,,,,,,,,
92,U XV,U,XV,14,Uranium,Pt,[Xe].4f14.5d10,5d10,1S0,5d9 2D<5/2>,323,3,,,,,,,,,,,
92,U XVI,U,XVI,15,Uranium,Ir,[Xe].4f14.5d9,5d9,2D<5/2>,5d8 3F<4>,348,3,,,,,,,,,,,
92,U XVII,U,XVII,16,Uranium,Os,[Xe].4f14.5d8,5d8,3F<4>,5d7 4F<9/2>,375,3,,,,,,,,,,,
92,U XVIII,U,XVIII,17,Uranium,Re,[Xe].4f14.5d7,5d7,4F<9/2>,5d6 5D<4>,402,3,,,,,,,,,,,
92,U XIX,U,XIX,18,Uranium,W,[Xe].4f14.5d6,5d6,5D<4>,5d5 6S<5/2>,431,3,,,,,,,,,,,
92,U XX,U,XX,19,Uranium,Ta,[Xe].4f14.5d5,5d5,6S<5/2>,5d4 5D<0>,458,4,,,,,,,,,,,
92,U XXI,U,XXI,20,Uranium,Hf,[Xe].4f14.5d4,5d4,5D0,5d3 4F<3/2>,497,4,,,,,,,,,,,
92,U XXII,U,XXII,21,Uranium,Lu,[Xe].4f14.5d3,5d3,4F<3/2>,5d2 3F<2>,525,4,,,,,,,,,,,
92,U XXIII,U,XXIII,22,Uranium,Yb,[Xe].4f14.5d2,5d2,3F<2>,5d 2D<3/2>,557,4,,,,,,,,,,,
92,U XXIV,U,XXIV,23,Uranium,Tm,[Xe].4f14.5d,5d,2D<3/2>,4f14 1S<0>,585,4,,,,,,,,,,,
92,U XXV,U,XXV,24,Uranium,Er,[Xe].4f14,4f14,1S0,4f14.5p5 2P*<3/2>,730,40,,,,,,,,,,,
92,U XXVI,U,XXVI,25,Uranium,Ho,[Cd].4f14.5p5,4f14.5p5,2P*<3/2>,4f14.5p4 3P<2>,770,40,,,,,,,,,,,
92,U XXVII,U,XXVII,26,Uranium,Dy,[Cd].4f14.5p4,4f14.5p4,3P<2>,4f14.5p3 2P*<3/2>,800,40,,,,,,,,,,,
92,U XXVIII,U,XXVIII,27,Uranium,Tb,[Cd].4f14.5p3,4f14.5p3,2P*<3/2>,4f14.5p2 3P<0>,840,40,,,,,,,,,,,
92,U XXIX,U,XXIX,28,Uranium,Gd,[Cd].4f14.5p2,4f14.5p2,3P0,4f14.5p 2P*<1/2>,930,50,,,,,,,,,,,
92,U XXX,U,XXX,29,Uranium,Eu,[Cd].4f14.5p,4f14.5p,2P*<1/2>,4f14 1S<0>,970,50,,,,,,,,,,,
92,U XXXI,U,XXXI,30,Uranium,Sm,[Cd].4f14,4f14,1S0,4f14.5s 2S<1/2>,1070,50,,,,,,,,,,,
92,U XXXII,U,XXXII,31,Uranium,Pm,[Kr].4d10.4f14.5s,4f14.5s,2S<1/2>,4f14 1S<0>,1110,60,,,,,,,,,,,
92,U XXXIII,U,XXXIII,32,Uranium,Nd,[Kr].4d10.4f14,4f14,1S0,4f13 2F*<7/2>,1210,60,,,,,,,,,,,
92,U XXXIV,U,XXXIV,33,Uranium,Pr,[Kr].4d10.4f13,4f13,2F*<7/2>,4f12,1290,60,,,,,,,,,,,
92,U XXXV,U,XXXV,34,Uranium,Ce,[Kr].4d10.4f12,4f12,,4f11 4I*<15/2>,1370,70,,,,,,,,,,,
92,U XXXVI,U,XXXVI,35,Uranium,La,[Kr].4d10.4f11,4f11,4I*<15/2>,4f10 5I<8>,1440,70,,,,,,,,,,,
92,U XXXVII,U,XXXVII,36,Uranium,Ba,[Kr].4d10.4f10,4f10,5I<8>,4f9 6H*<15/2>,1520,80,,,,,,,,,,,
92,U XXXVIII,U,XXXVIII,37,Uranium,Cs,[Kr].4d10.4f9,4f9,6H*<15/2>,4f8 7F<6>,1590,80,,,,,,,,,,,
92,U XXXIX,U,XXXIX,38,Uranium,Xe,[Kr].4d10.4f8,4f8,7F<6>,4f7 8S*<7/2>,1670,80,,,,,,,,,,,
92,U XL,U,XL,39,Uranium,I,[Kr].4d10.4f7,4f7,8S*<7/2>,4f6 7F<0>,1750,90,,,,,,,,,,,
92,U XLI,U,XLI,40,Uranium,Te,[Kr].4d10.4f6,4f6,7F0,4f5 6H*<5/2>,1830,90,,,,,,,,,,,
92,U XLII,U,XLII,41,Uranium,Sb,[Kr].4d10.4f5,4f5,6H*<5/2>,4f4 5I<4>,1910,100,,,,,,,,,,,
92,U XLIII,U,XLIII,42,Uranium,Sn,[Kr].4d10.4f4,4f4,5I<4>,4f3 4I*<9/2>,1990,100,,,,,,,,,,,
92,U XLIV,U,XLIV,43,Uranium,In,[Kr].4d10.4f3,4f3,4I*<9/2>,4f2 3H<4>,2070,100,,,,,,,,,,,
92,U XLV,U,XLV,44,Uranium,Cd,[Kr].4d10.4f2,4f2,3H<4>,4f 2F*<5/2>,2140,110,,,,,,,,,,,
92,U XLVI,U,XLVI,45,Uranium,Ag,[Kr].4d10.4f,4f,2F*<5/2>,4d10 1S<0>,2220,110,,,,,,,,,,,
92,U XLVII,U,XLVII,46,Uranium,Pd,[Kr].4d10,4d10,1S0,4d9 2D<5/2>,2578,4,,,,,,,,,,,
92,U XLVIII,U,XLVIII,47,Uranium,Rh,[Kr].4d9,4d9,2D<5/2>,4d8 3F<4>,2646,4,,,,,,,,,,,
92,U XLIX,U,XLIX,48,Uranium,Ru,[Kr].4d8,4d8,3F<4>,4d7 4F<9/2>,2718,4,,,,,,,,,,,
92,U L,U,L,49,Uranium,Tc,[Kr].4d7,4d7,4F<9/2>,4d6 5D<4>,2794,4,,,,,,,,,,,
92,U LI,U,LI,50,Uranium,Mo,[Kr].4d6,4d6,5D<4>,"4d-4.4d+ (0,5/2)<5/2>",2867,4,,,,,,,,,,,
92,U LII,U,LII,51,Uranium,Nb,[Kr].4d5,4d-4.4d+,"(0,5/2)<5/2>",4d4 5D<0>,2938,4,,,,,,,,,,,
92,U LIII,U,LIII,52,Uranium,Zr,[Kr].4d4,4d4,5D0,4d3 4F<3/2>,3073,4,,,,,,,,,,,
92,U LIV,U,LIV,53,Uranium,Y,[Kr].4d3,4d3,4F<3/2>,4d2 3F<2>,3147,5,,,,,,,,,,,
92,U LV,U,LV,54,Uranium,Sr,[Kr].4d2,4d2,3F<2>,4d 2D<3/2>,3228,5,,,,,,,,,,,
92,U LVI,U,LVI,55,Uranium,Rb,[Kr].4d,4d,2D<3/2>,4p6 1S<0>,3301,5,,,,,,,,,,,
92,U LVII,U,LVII,56,Uranium,Kr,[Ar].3d10.4s2.4p6,4p6,1S0,4p5 2P*<3/2>,3602,5,,,,,,,,,,,
92,U LVIII,U,LVIII,57,Uranium,Br,[Ar].3d10.4s2.4p5,4p5,2P*<3/2>,4p4 3P<2>,3675,6,,,,,,,,,,,
92,U LIX,U,LIX,58,Uranium,Se,[Ar].3d10.4s2.4p4,4p4,3P<2>,"4p-2.4p+ (0,3/2)*<3/2>",3753,6,,,,,,,,,,,
92,U LX,U,LX,59,Uranium,As,[Ar].3d10.4s2.4p3,4p-2.4p+,"(0,3/2)*<3/2>",4p2 3P<0>,3827,7,,,,,,,,,,,
92,U LXI,U,LXI,60,Uranium,Ge,[Ar].3d10.4s2.4p2,4p2,3P0,4p 2P*<1/2>,4214,10,,,,,,,,,,,
92,U LXII,U,LXII,61,Uranium,Ga,[Ar].3d10.4s2.4p,4p,2P*<1/2>,4s2 1S<0>,4299,12,,,,,,,,,,,
92,U LXIII,U,LXIII,62,Uranium,Zn,[Ar].3d10.4s2,4s2,1S0,4s 2S<1/2>,4513,15,,,,,,,,,,,
92,U LXIV,U,LXIV,63,Uranium,Cu,[Ar].3d10.4s,4s,2S<1/2>,3d10 1S<0>,4598,5,,,,,,,,,,,
92,U LXV,U,LXV,64,Uranium,Ni,[Ar].3d10,3d10,1S0,3d9 2D<5/2>,7393,24,,,,,,,,,,,
92,U LXVI,U,LXVI,65,Uranium,Co,[Ar].3d9,3d9,2D<5/2>,3d8 3F<4>,7550,30,,,,,,,,,,,
92,U LXVII,U,LXVII,66,Uranium,Fe,[Ar].3d8,3d8,3F<4>,3d7 4F<9/2>,7730,40,,,,,,,,,,,
92,U LXVIII,U,LXVIII,67,Uranium,Mn,[Ar].3d7,3d7,4F<9/2>,"3d-4.3d+2 (0,4)<4>",7910,40,,,,,,,,,,,
92,U LXIX,U,LXIX,68,Uranium,Cr,[Ar].3d6,3d-4.3d+2,"(0,4)<4>","3d-4.3d+ (0,5/2)<5/2>",8090,50,,,,,,,,,,,
92,U LXX,U,LXX,69,Uranium,V,[Ar].3d5,3d-4.3d+,"(0,5/2)<5/2>",3d4 5D<0>,8260,50,,,,,,,,,,,
92,U LXXI,U,LXXI,70,Uranium,Ti,[Ar].3d4,3d4,5D0,3d3 4F<3/2>,8650,60,,,,,,,,,,,
92,U LXXII,U,LXXII,71,Uranium,Sc,[Ar].3d3,3d3,4F<3/2>,3d2 3F<2>,8830,60,,,,,,,,,,,
92,U LXXIII,U,LXXIII,72,Uranium,Ca,[Ar].3d2,3d2,3F<2>,3d 2D<3/2>,9030,70,,,,,,,,,,,
92,U LXXIV,U,LXXIV,73,Uranium,K,[Ar].3d,3d,2D<3/2>,3p6 1S<0>,9210,90,,,,,,,,,,,
92,U LXXV,U,LXXV,74,Uranium,Ar,[Ne].3s2.3p6,3p6,1S0,3p5 2P*<3/2>,9720,90,,,,,,,,,,,
92,U LXXVI,U,LXXVI,75,Uranium,Cl,[Ne].3s2.3p5,3p5,2P*<3/2>,3p4 3P<2>,9870,100,,,,,,,,,,,
92,U LXXVII,U,LXXVII,76,Uranium,S,[Ne].3s2.3p4,3p4,3P<2>,3p3 2P*<3/2>,10040,110,,,,,,,,,,,
92,U LXXVIII,U,LXXVIII,77,Uranium,P,[Ne].3s2.3p3,3p3,2P*<3/2>,3p2 3P<0>,10200,120,,,,,,,,,,,
92,U LXXIX,U,LXXIX,78,Uranium,Si,[Ne].3s2.3p2,3p2,3P0,3p 2P*<1/2>,11410,120,,,,,,,,,,,
92,U LXXX,U,LXXX,79,Uranium,Al,[Ne].3s2.3p,3p,2P*<1/2>,3s2 1S<0>,11600,140,,,,,,,,,,,
92,U LXXXI,U,LXXXI,80,Uranium,Mg,[Ne].3s2,3s2,1S0,3s 2S<1/2>,11990,150,,,,,,,,,,,
92,U LXXXII,U,LXXXII,81,Uranium,Na,[Ne].3s,3s,2S<1/2>,2p6 1S<0>,12160,160,,,,,,,,,,,
92,U LXXXIII,U,LXXXIII,82,Uranium,Ne,1s2.2s2.2p6,2p6,1S0,2p5 2P*<3/2>,25260,170,,,,,,,,,,,
92,U LXXXIV,U,LXXXIV,83,Uranium,F,1s2.2s2.2p5,2p5,2P*<3/2>,2p4 3P<2>,25680,190,,,,,,,,,,,
92,U LXXXV,U,LXXXV,84,Uranium,O,1s2.2s2.2p4,2p4,3P<2>,"2p2<1/2>.2p<3/2> (0,3/2)*<3/2>",26150,200,,,,,,,,,,,
92,U LXXXVI,U,LXXXVI,85,Uranium,N,1s2.2s2.2p3,2p2<1/2>.2p<3/2>,"(0,3/2)*<3/2>",2p2 3P<0>,26590,220,,,,,,,,,,,
92,U LXXXVII,U,LXXXVII,86,Uranium,C,1s2.2s2.2p2,2p2,3P0,2p 2P*<1/2>,31060,240,,,,,,,,,,,
92,U LXXXVIII,U,LXXXVIII,87,Uranium,B,1s2.2s2.2p,2p,2P*<1/2>,2s2 1S<0>,31640,250,,,,,,,,,,,
92,U LXXXIX,U,LXXXIX,88,Uranium,Be,1s2.2s2,2s2,1S0,2s 2S<1/2>,32400,300,,,,,,,,,,,
92,U XC,U,XC,89,Uranium,Li,1s2.2s,1s2.2s,2S<1/2>,1s2 1S<0>,32836.5,0.6,,,,,,,,,,,
92,U XCI,U,XCI,90,Uranium,He,1s2,1s2,1S0,1s 2S<1/2>,129569.9,0.7,,,,,,,,,,,
92,U XCII,U,XCII,91,Uranium,H,1s,1s,2S<1/2>,,131816.2,0.5,,,,,,,,,,,
93,Np I,Np,I,0,Neptunium,Np,[Rn].5f4.6d.7s2,5f4.6d.7s2,6L<11/2>,5f4.6d.7s 7L<5>,6.265608,0.000019,,,,,,,,,,,
93,Np II,Np,II,1,Neptunium,U,[Rn].5f4.6d.7s,5f4.6d.7s,7L<5>,5f5 6H*<5/2>,11.5,0.4,,,,,,,,,,,
93,Np III,Np,III,2,Neptunium,Pa,[Rn].5f5,5f5,6H*<5/2>,5f4 5I<4>,19.7,0.4,,,,,,,,,,,
93,Np IV,Np,IV,3,Neptunium,Th,[Rn].5f4,5f4,5I<4>,5f3.6p6 4I*<9/2>,33.8,0.4,,,,,,,,,,,
93,Np V,Np,V,4,Neptunium,Ac,[Rn].5f3,5f3.6p6,4I*<9/2>,5f2.6p6 3H<4>,48,1.9,,,,,,,,,,,
93,Np VI,Np,VI,5,Neptunium,Ra,[Rn].5f2,5f2.6p6,3H<4>,5f.6p6 2F*<5/2>,65,2,,,,,,,,,,,
93,Np VII,Np,VII,6,Neptunium,Fr,[Rn].5f,5f.6p6,2F*<5/2>,5f.6p5,92,5,,,,,,,,,,,
93,Np VIII,Np,VIII,7,Neptunium,Rn,[Hg].5f.6p5,5f.6p5,,5f.6p4*,107,5,,,,,,,,,,,
93,Np IX,Np,IX,8,Neptunium,At,[Hg].5f.6p4,5f.6p4,*,5f.6p3,121,6,,,,,,,,,,,
93,Np X,Np,X,9,Neptunium,Po,[Hg].5f.6p3,5f.6p3,,5f.6p2*,136,7,,,,,,,,,,,
93,Np XI,Np,XI,10,Neptunium,Bi,[Hg].5f.6p2,5f.6p2,*,6p2 3P<0>,151,8,,,,,,,,,,,
93,Np XII,Np,XII,11,Neptunium,Pb,[Hg].6p2,6p2,3P0,6p 2P*<1/2>,179,2.5,,,,,,,,,,,
93,Np XIII,Np,XIII,12,Neptunium,Tl,[Hg].6p,6p,2P*<1/2>,6s2 1S<0>,196,3,,,,,,,,,,,
93,Np XIV,Np,XIV,13,Neptunium,Hg,[Xe].4f14.5d10.6s2,6s2,1S0,6s 2S<1/2>,233,3,,,,,,,,,,,
93,Np XV,Np,XV,14,Neptunium,Au,[Xe].4f14.5d10.6s,6s,2S<1/2>,5d10 1S<0>,252,3,,,,,,,,,,,
93,Np XVI,Np,XVI,15,Neptunium,Pt,[Xe].4f14.5d10,5d10,1S0,5d9 2D<5/2>,355,3,,,,,,,,,,,
93,Np XVII,Np,XVII,16,Neptunium,Ir,[Xe].4f14.5d9,5d9,2D<5/2>,5d8 3F<4>,382,3,,,,,,,,,,,
93,Np XVIII,Np,XVIII,17,Neptunium,Os,[Xe].4f14.5d8,5d8,3F<4>,5d7 4F<9/2>,408,3,,,,,,,,,,,
93,Np XIX,Np,XIX,18,Neptunium,Re,[Xe].4f14.5d7,5d7,4F<9/2>,5d6 5D<4>,438,3,,,,,,,,,,,
93,Np XX,Np,XX,19,Neptunium,W,[Xe].4f14.5d6,5d6,5D<4>,5d5 6S<5/2>,466,4,,,,,,,,,,,
93,Np XXI,Np,XXI,20,Neptunium,Ta,[Xe].4f14.5d5,5d5,6S<5/2>,5d4 5D<0>,495,4,,,,,,,,,,,
93,Np XXII,Np,XXII,21,Neptunium,Hf,[Xe].4f14.5d4,5d4,5D0,5d3 4F<3/2>,535,4,,,,,,,,,,,
93,Np XXIII,Np,XXIII,22,Neptunium,Lu,[Xe].4f14.5d3,5d3,4F<3/2>,5d2 3F<2>,565,4,,,,,,,,,,,
93,Np XXIV,Np,XXIV,23,Neptunium,Yb,[Xe].4f14.5d2,5d2,3F<2>,5d 2D<3/2>,596,4,,,,,,,,,,,
93,Np XXV,Np,XXV,24,Neptunium,Tm,[Xe].4f14.5d,5d,2D<3/2>,4f14 1S<0>,626,4,,,,,,,,,,,
93,Np XXVI,Np,XXVI,25,Neptunium,Er,[Xe].4f14,4f14,1S0,4f14.5p5 2P*<3/2>,770,40,,,,,,,,,,,
93,Np XXVII,Np,XXVII,26,Neptunium,Ho,[Cd].4f14.5p5,4f14.5p5,2P*<3/2>,4f14.5p4 3P<2>,810,40,,,,,,,,,,,
93,Np XXVIII,Np,XXVIII,27,Neptunium,Dy,[Cd].4f14.5p4,4f14.5p4,3P<2>,4f14.5p3 2P*<3/2>,850,40,,,,,,,,,,,
93,Np XXIX,Np,XXIX,28,Neptunium,Tb,[Cd].4f14.5p3,4f14.5p3,2P*<3/2>,4f14.5p2 3P<0>,880,40,,,,,,,,,,,
93,Np XXX,Np,XXX,29,Neptunium,Gd,[Cd].4f14.5p2,4f14.5p2,3P0,4f14.5p 2P*<1/2>,980,50,,,,,,,,,,,
93,Np XXXI,Np,XXXI,30,Neptunium,Eu,[Cd].4f14.5p,4f14.5p,2P*<1/2>,4f14 1S<0>,1020,50,,,,,,,,,,,
93,Np XXXII,Np,XXXII,31,Neptunium,Sm,[Cd].4f14,4f14,1S0,4f14.5s 2S<1/2>,1130,60,,,,,,,,,,,
93,Np XXXIII,Np,XXXIII,32,Neptunium,Pm,[Kr].4d10.4f14.5s,4f14.5s,2S<1/2>,4f14 1S<0>,1170,60,,,,,,,,,,,
93,Np XXXIV,Np,XXXIV,33,Neptunium,Nd,[Kr].4d10.4f14,4f14,1S0,4f13 2F*<7/2>,1280,60,,,,,,,,,,,
93,Np XXXV,Np,XXXV,34,Neptunium,Pr,[Kr].4d10.4f13,4f13,2F*<7/2>,4f12,1360,70,,,,,,,,,,,
93,Np XXXVI,Np,XXXVI,35,Neptunium,Ce,[Kr].4d10.4f12,4f12,,4f11 4I*<15/2>,1430,70,,,,,,,,,,,