At. num,Sp. Name,Element,Valence,Ion Charge,El. Name,Isoel. Seq.,Ground Shells (a),Ground Config.,Ground Level,Ionized Level,Ionization Energy (b) (eV),Uncertainty (c) (eV),,,,,,,,,,,
43,Tc V,Tc,V,4,Technetium,Y,[Kr].4d3,4d3,4F<3/2>,4d2 3F<2>,57,1.9,,,,,,,,,,,
43,Tc VI,Tc,VI,5,Technetium,Sr,[Kr].4d2,4d2,3F<2>,4d 2D<3/2>,72,2,,,,,,,,,,,
43,Tc VII,Tc,VII,6,Technetium,Rb,[Kr].4d,4d,2D<3/2>,4p6 1S<0>,88,2,,,,,,,,,,,
43,Tc VIII,Tc,VIII,7,Technetium,Kr,[Ar].3d10.4s2.4p6,4p6,1S0,4p5 2P*<3/2>,150,2.1,,,,,,,,,,,
43,Tc IX,Tc,IX,8,Technetium,Br,[Ar].3d10.4s2.4p5,4p5,2P*<3/2>,4p4 3P<2>,169,2.2,,,,,,,,,,,
43,Tc X,Tc,X,9,Technetium,Se,[Ar].3d10.4s2.4p4,4p4,3P<2>,4p3 4S*<3/2>,189.9,2.2,,,,,,,,,,,
43,Tc XI,Tc,XI,10,Technetium,As,[Ar].3d10.4s2.4p3,4p3,4S*<3/2>,4p2 3P<0>,214,2.4,,,,,,,,,,,
43,Tc XII,Tc,XII,11,Technetium,Ge,[Ar].3d10.4s2.4p2,4p2,3P0,4p 2P*<1/2>,239,2.5,,,,,,,,,,,
43,Tc XIII,Tc,XIII,12,Technetium,Ga,[Ar].3d10.4s2.4p,4p,2P*<1/2>,4s2 1S<0>,262.08,0.12,,,,,,,,,,,
43,Tc XIV,Tc,XIV,13,Technetium,Zn,[Ar].3d10.4s2,4s2,1S0,4s 2S<1/2>,311,3,,,,,,,,,,,
43,Tc XV,Tc,XV,14,Technetium,Cu,[Ar].3d10.4s,4s,2S<1/2>,3d10 1S<0>,338.55,0.17,,,,,,,,,,,
43,Tc XVI,Tc,XVI,15,Technetium,Ni,[Ar].3d10,3d10,1S0,3d9 2D<5/2>,604,3,,,,,,,,,,,
43,Tc XVII,Tc,XVII,16,Technetium,Co,[Ar].3d9,3d9,2D<5/2>,3d8 3F<4>,655,3,,,,,,,,,,,
43,Tc XVIII,Tc,XVIII,17,Technetium,Fe,[Ar].3d8,3d8,3F<4>,3d7 4F<9/2>,713,3,,,,,,,,,,,
43,Tc XIX,Tc,XIX,18,Technetium,Mn,[Ar].3d7,3d7,4F<9/2>,3d6 5D<4>,773,3,,,,,,,,,,,
43,Tc XX,Tc,XX,19,Technetium,Cr,[Ar].3d6,3d6,5D<4>,3d5 6S<5/2>,829,4,,,,,,,,,,,
43,Tc XXI,Tc,XXI,20,Technetium,V,[Ar].3d5,3d5,6S<5/2>,3d4 5D<0>,904,4,,,,,,,,,,,
43,Tc XXII,Tc,XXII,21,Technetium,Ti,[Ar].3d4,3d4,5D0,3d3 4F<3/2>,968,4,,,,,,,,,,,
43,Tc XXIII,Tc,XXIII,22,Technetium,Sc,[Ar].3d3,3d3,4F<3/2>,3d2 3F<2>,1032,4,,,,,,,,,,,
43,Tc XXIV,Tc,XXIV,23,Technetium,Ca,[Ar].3d2,3d2,3F<2>,3d 2D<3/2>,1102,4,,,,,,,,,,,
43,Tc XXV,Tc,XXV,24,Technetium,K,[Ar].3d,3d,2D<3/2>,3p6 1S<0>,1166,4,,,,,,,,,,,
43,Tc XXVI,Tc,XXVI,25,Technetium,Ar,[Ne].3s2.3p6,3p6,1S0,3p5 2P*<3/2>,1354,4,,,,,,,,,,,
43,Tc XXVII,Tc,XXVII,26,Technetium,Cl,[Ne].3s2.3p5,3p5,2P*<3/2>,3p4 3P<2>,1411.6,1.5,,,,,,,,,,,
43,Tc XXVIII,Tc,XXVIII,27,Technetium,S,[Ne].3s2.3p4,3p4,3P<2>,3p3 4S*<3/2>,1479.5,2,,,,,,,,,,,
43,Tc XXIX,Tc,XXIX,28,Technetium,P,[Ne].3s2.3p3,3p3,4S*<3/2>,3p2 3P<0>,1559,6,,,,,,,,,,,
43,Tc XXX,Tc,XXX,29,Technetium,Si,[Ne].3s2.3p2,3p2,3P0,3p 2P*<1/2>,1638,4,,,,,,,,,,,
43,Tc XXXI,Tc,XXXI,30,Technetium,Al,[Ne].3s2.3p,3p,2P*<1/2>,3s2 1S<0>,1689,8,,,,,,,,,,,
43,Tc XXXII,Tc,XXXII,31,Technetium,Mg,[Ne].3s2,3s2,1S0,3s 2S<1/2>,1838,3,,,,,,,,,,,
43,Tc XXXIII,Tc,XXXIII,32,Technetium,Na,[Ne].3s,3s,2S<1/2>,2p6 1S<0>,1900.28,0.06,,,,,,,,,,,
43,Tc XXXIV,Tc,XXXIV,33,Technetium,Ne,1s2.2s2.2p6,2p6,1S0,2p5 2P*<3/2>,4505,2.5,,,,,,,,,,,
43,Tc XXXV,Tc,XXXV,34,Technetium,F,1s2.2s2.2p5,2p5,2P*<3/2>,2p4 3P<2>,4681,8,,,,,,,,,,,
43,Tc XXXVI,Tc,XXXVI,35,Technetium,O,1s2.2s2.2p4,2p4,3P<2>,"2p2<1/2>.2p<3/2> (0,3/2)*<3/2>",4874,10,,,,,,,,,,,
43,Tc XXXVII,Tc,XXXVII,36,Technetium,N,1s2.2s2.2p3,2p2<1/2>.2p<3/2>,"(0,3/2)*<3/2>",2p2 3P<0>,5060,40,,,,,,,,,,,
43,Tc XXXVIII,Tc,XXXVIII,37,Technetium,C,1s2.2s2.2p2,2p2,3P0,2p 2P*<1/2>,5361,6,,,,,,,,,,,
43,Tc XXXIX,Tc,XXXIX,38,Technetium,B,1s2.2s2.2p,2p,2P*<1/2>,2s2 1S<0>,5570,4,,,,,,,,,,,
43,Tc XL,Tc,XL,39,Technetium,Be,1s2.2s2,2s2,1S0,2s 2S<1/2>,5838,6,,,,,,,,,,,
43,Tc XLI,Tc,XLI,40,Technetium,Li,1s2.2s,1s2.2s,2S<1/2>,1s2 1S<0>,6008.391,0.017,,,,,,,,,,,
43,Tc XLII,Tc,XLII,41,Technetium,He,1s2,1s2,1S0,1s 2S<1/2>,25004.531,0.01,,,,,,,,,,,
43,Tc XLIII,Tc,XLIII,42,Technetium,H,1s,1s,2S<1/2>,,25787.047,0.016,,,,,,,,,,,
44,Ru I,Ru,I,0,Ruthenium,Ru,[Kr].4d7.5s,4d7.(4F).5s,5F<5>,4d7 4F<9/2>,7.3605,0.00005,,,,,,,,,,,
44,Ru II,Ru,II,1,Ruthenium,Tc,[Kr].4d7,4d7,4F<9/2>,4d6 5D<4>,16.76,0.06,,,,,,,,,,,
44,Ru III,Ru,III,2,Ruthenium,Mo,[Kr].4d6,4d6,5D<4>,4d5 6S<5/2>,28.47,,,,,,,,,,,,
44,Ru IV,Ru,IV,3,Ruthenium,Nb,[Kr].4d5,4d5,6S<5/2>,4d4 5D<0>,45,1.7,,,,,,,,,,,
44,Ru V,Ru,V,4,Ruthenium,Zr,[Kr].4d4,4d4,5D0,4d3 4F<3/2>,59,1.9,,,,,,,,,,,
44,Ru VI,Ru,VI,5,Ruthenium,Y,[Kr].4d3,4d3,4F<3/2>,4d2 3F<2>,76,2,,,,,,,,,,,
44,Ru VII,Ru,VII,6,Ruthenium,Sr,[Kr].4d2,4d2,3F<2>,4d 2D<3/2>,93,2,,,,,,,,,,,
44,Ru VIII,Ru,VIII,7,Ruthenium,Rb,[Kr].4d,4d,2D<3/2>,4p6 1S<0>,110,2.1,,,,,,,,,,,
44,Ru IX,Ru,IX,8,Ruthenium,Kr,[Ar].3d10.4s2.4p6,4p6,1S0,4p5 2P*<3/2>,178.41,0.05,,,,,,,,,,,
44,Ru X,Ru,X,9,Ruthenium,Br,[Ar].3d10.4s2.4p5,4p5,2P*<3/2>,4p4 3P<2>,198,2.2,,,,,,,,,,,
44,Ru XI,Ru,XI,10,Ruthenium,Se,[Ar].3d10.4s2.4p4,4p4,3P<2>,4p3 4S*<3/2>,219.9,2.4,,,,,,,,,,,
44,Ru XII,Ru,XII,11,Ruthenium,As,[Ar].3d10.4s2.4p3,4p3,4S*<3/2>,4p2 3P<0>,245,2.5,,,,,,,,,,,
44,Ru XIII,Ru,XIII,12,Ruthenium,Ge,[Ar].3d10.4s2.4p2,4p2,3P0,4p 2P*<1/2>,271,3,,,,,,,,,,,
44,Ru XIV,Ru,XIV,13,Ruthenium,Ga,[Ar].3d10.4s2.4p,4p,2P*<1/2>,4s2 1S<0>,295.9,0.09,,,,,,,,,,,
44,Ru XV,Ru,XV,14,Ruthenium,Zn,[Ar].3d10.4s2,4s2,1S0,4s 2S<1/2>,348,3,,,,,,,,,,,
44,Ru XVI,Ru,XVI,15,Ruthenium,Cu,[Ar].3d10.4s,4s,2S<1/2>,3d10 1S<0>,376.25,0.1,,,,,,,,,,,
44,Ru XVII,Ru,XVII,16,Ruthenium,Ni,[Ar].3d10,3d10,1S0,3d9 2D<5/2>,670,3,,,,,,,,,,,
44,Ru XVIII,Ru,XVIII,17,Ruthenium,Co,[Ar].3d9,3d9,2D<5/2>,3d8 3F<4>,723,3,,,,,,,,,,,
44,Ru XIX,Ru,XIX,18,Ruthenium,Fe,[Ar].3d8,3d8,3F<4>,3d7 4F<9/2>,784,3,,,,,,,,,,,
44,Ru XX,Ru,XX,19,Ruthenium,Mn,[Ar].3d7,3d7,4F<9/2>,3d6 5D<4>,845,4,,,,,,,,,,,
44,Ru XXI,Ru,XXI,20,Ruthenium,Cr,[Ar].3d6,3d6,5D<4>,3d5 6S<5/2>,905,4,,,,,,,,,,,
44,Ru XXII,Ru,XXII,21,Ruthenium,V,[Ar].3d5,3d5,6S<5/2>,3d4 5D<0>,981,4,,,,,,,,,,,
44,Ru XXIII,Ru,XXIII,22,Ruthenium,Ti,[Ar].3d4,3d4,5D0,3d3 4F<3/2>,1048,4,,,,,,,,,,,
44,Ru XXIV,Ru,XXIV,23,Ruthenium,Sc,[Ar].3d3,3d3,4F<3/2>,3d2 3F<2>,1115,4,,,,,,,,,,,
44,Ru XXV,Ru,XXV,24,Ruthenium,Ca,[Ar].3d2,3d2,3F<2>,3d 2D<3/2>,1187,4,,,,,,,,,,,
44,Ru XXVI,Ru,XXVI,25,Ruthenium,K,[Ar].3d,3d,2D<3/2>,3p6 1S<0>,1253,4,,,,,,,,,,,
44,Ru XXVII,Ru,XXVII,26,Ruthenium,Ar,[Ne].3s2.3p6,3p6,1S0,3p5 2P*<3/2>,1447,4,,,,,,,,,,,
44,Ru XXVIII,Ru,XXVIII,27,Ruthenium,Cl,[Ne].3s2.3p5,3p5,2P*<3/2>,3p4 3P<2>,1506.7,1.6,,,,,,,,,,,
44,Ru XXIX,Ru,XXIX,28,Ruthenium,S,[Ne].3s2.3p4,3p4,3P<2>,3p3 4S*<3/2>,1577,2.1,,,,,,,,,,,
44,Ru XXX,Ru,XXX,29,Ruthenium,P,[Ne].3s2.3p3,3p3,4S*<3/2>,3p2 3P<0>,1659,6,,,,,,,,,,,
44,Ru XXXI,Ru,XXXI,30,Ruthenium,Si,[Ne].3s2.3p2,3p2,3P0,3p 2P*<1/2>,1743,4,,,,,,,,,,,
44,Ru XXXII,Ru,XXXII,31,Ruthenium,Al,[Ne].3s2.3p,3p,2P*<1/2>,3s2 1S<0>,1794,8,,,,,,,,,,,
44,Ru XXXIII,Ru,XXXIII,32,Ruthenium,Mg,[Ne].3s2,3s2,1S0,3s 2S<1/2>,1949,3,,,,,,,,,,,
44,Ru XXXIV,Ru,XXXIV,33,Ruthenium,Na,[Ne].3s,3s,2S<1/2>,2p6 1S<0>,2013.04,0.06,,,,,,,,,,,
44,Ru XXXV,Ru,XXXV,34,Ruthenium,Ne,1s2.2s2.2p6,2p6,1S0,2p5 2P*<3/2>,4758,3,,,,,,,,,,,
44,Ru XXXVI,Ru,XXXVI,35,Ruthenium,F,1s2.2s2.2p5,2p5,2P*<3/2>,2p4 3P<2>,4939,8,,,,,,,,,,,
44,Ru XXXVII,Ru,XXXVII,36,Ruthenium,O,1s2.2s2.2p4,2p4,3P<2>,"2p2<1/2>.2p<3/2> (0,3/2)*<3/2>",5136,11,,,,,,,,,,,
44,Ru XXXVIII,Ru,XXXVIII,37,Ruthenium,N,1s2.2s2.2p3,2p2<1/2>.2p<3/2>,"(0,3/2)*<3/2>",2p2 3P<0>,5330,40,,,,,,,,,,,
44,Ru XXXIX,Ru,XXXIX,38,Ruthenium,C,1s2.2s2.2p2,2p2,3P0,2p 2P*<1/2>,5647,6,,,,,,,,,,,
44,Ru XL,Ru,XL,39,Ruthenium,B,1s2.2s2.2p,2p,2P*<1/2>,2s2 1S<0>,5861,4,,,,,,,,,,,
44,Ru XLI,Ru,XLI,40,Ruthenium,Be,1s2.2s2,2s2,1S0,2s 2S<1/2>,6137,6,,,,,,,,,,,
44,Ru XLII,Ru,XLII,41,Ruthenium,Li,1s2.2s,1s2.2s,2S<1/2>,1s2 1S<0>,6311.721,0.019,,,,,,,,,,,
44,Ru XLIII,Ru,XLIII,42,Ruthenium,He,1s2,1s2,1S0,1s 2S<1/2>,26229.888,0.011,,,,,,,,,,,
44,Ru XLIV,Ru,XLIV,43,Ruthenium,H,1s,1s,2S<1/2>,,27033.564,0.005,,,,,,,,,,,
45,Rh I,Rh,I,0,Rhodium,Rh,[Kr].4d8.5s,4d8.(3F).5s,4F<9/2>,4d8 3F<4>,7.4589,0.00005,,,,,,,,,,,
45,Rh II,Rh,II,1,Rhodium,Ru,[Kr].4d8,4d8,3F<4>,4d7 4F<9/2>,18.08,,,,,,,,,,,,
45,Rh III,Rh,III,2,Rhodium,Tc,[Kr].4d7,4d7,4F<9/2>,4d6 5D<4>,31.06,,,,,,,,,,,,
45,Rh IV,Rh,IV,3,Rhodium,Mo,[Kr].4d6,4d6,5D<4>,4d5 6S<5/2>,42,1.7,,,,,,,,,,,
45,Rh V,Rh,V,4,Rhodium,Nb,[Kr].4d5,4d5,6S<5/2>,4d4 5D<0>,63,1.9,,,,,,,,,,,
45,Rh VI,Rh,VI,5,Rhodium,Zr,[Kr].4d4,4d4,5D0,4d3 4F<3/2>,80,2,,,,,,,,,,,
45,Rh VII,Rh,VII,6,Rhodium,Y,[Kr].4d3,4d3,4F<3/2>,4d2 3F<2>,97,2,,,,,,,,,,,
45,Rh VIII,Rh,VIII,7,Rhodium,Sr,[Kr].4d2,4d2,3F<2>,4d 2D<3/2>,115.1,2.1,,,,,,,,,,,
45,Rh IX,Rh,IX,8,Rhodium,Rb,[Kr].4d,4d,2D<3/2>,4p6 1S<0>,135,2.2,,,,,,,,,,,
45,Rh X,Rh,X,9,Rhodium,Kr,[Ar].3d10.4s2.4p6,4p6,1S0,4p5 2P*<3/2>,207.51,0.05,,,,,,,,,,,
45,Rh XI,Rh,XI,10,Rhodium,Br,[Ar].3d10.4s2.4p5,4p5,2P*<3/2>,4p4 3P<2>,228,2.4,,,,,,,,,,,
45,Rh XII,Rh,XII,11,Rhodium,Se,[Ar].3d10.4s2.4p4,4p4,3P<2>,4p3 4S*<3/2>,252.1,2.5,,,,,,,,,,,
45,Rh XIII,Rh,XIII,12,Rhodium,As,[Ar].3d10.4s2.4p3,4p3,4S*<3/2>,4p2 3P<0>,277,3,,,,,,,,,,,
45,Rh XIV,Rh,XIV,13,Rhodium,Ge,[Ar].3d10.4s2.4p2,4p2,3P0,4p 2P*<1/2>,306,3,,,,,,,,,,,
45,Rh XV,Rh,XV,14,Rhodium,Ga,[Ar].3d10.4s2.4p,4p,2P*<1/2>,4s2 1S<0>,331.58,0.14,,,,,,,,,,,
45,Rh XVI,Rh,XVI,15,Rhodium,Zn,[Ar].3d10.4s2,4s2,1S0,4s 2S<1/2>,389.3,0.5,,,,,,,,,,,
45,Rh XVII,Rh,XVII,16,Rhodium,Cu,[Ar].3d10.4s,4s,2S<1/2>,3d10 1S<0>,415.97,0.14,,,,,,,,,,,
45,Rh XVIII,Rh,XVIII,17,Rhodium,Ni,[Ar].3d10,3d10,1S0,3d9 2D<5/2>,739,3,,,,,,,,,,,
45,Rh XIX,Rh,XIX,18,Rhodium,Co,[Ar].3d9,3d9,2D<5/2>,3d8 3F<4>,794,3,,,,,,,,,,,
45,Rh XX,Rh,XX,19,Rhodium,Fe,[Ar].3d8,3d8,3F<4>,3d7 4F<9/2>,857,4,,,,,,,,,,,
45,Rh XXI,Rh,XXI,20,Rhodium,Mn,[Ar].3d7,3d7,4F<9/2>,3d6 5D<4>,921,4,,,,,,,,,,,
45,Rh XXII,Rh,XXII,21,Rhodium,Cr,[Ar].3d6,3d6,5D<4>,3d5 6S<5/2>,984,4,,,,,,,,,,,
45,Rh XXIII,Rh,XXIII,22,Rhodium,V,[Ar].3d5,3d5,6S<5/2>,3d4 5D<0>,1061,4,,,,,,,,,,,
45,Rh XXIV,Rh,XXIV,23,Rhodium,Ti,[Ar].3d4,3d4,5D0,3d3 4F<3/2>,1131,4,,,,,,,,,,,
45,Rh XXV,Rh,XXV,24,Rhodium,Sc,[Ar].3d3,3d3,4F<3/2>,3d2 3F<2>,1202,4,,,,,,,,,,,
45,Rh XXVI,Rh,XXVI,25,Rhodium,Ca,[Ar].3d2,3d2,3F<2>,3d 2D<3/2>,1274,4,,,,,,,,,,,
45,Rh XXVII,Rh,XXVII,26,Rhodium,K,[Ar].3d,3d,2D<3/2>,3p6 1S<0>,1344,4,,,,,,,,,,,
45,Rh XXVIII,Rh,XXVIII,27,Rhodium,Ar,[Ne].3s2.3p6,3p6,1S0,3p5 2P*<3/2>,1544,5,,,,,,,,,,,
45,Rh XXIX,Rh,XXIX,28,Rhodium,Cl,[Ne].3s2.3p5,3p5,2P*<3/2>,3p4 3P<2>,1604.9,1.7,,,,,,,,,,,
45,Rh XXX,Rh,XXX,29,Rhodium,S,[Ne].3s2.3p4,3p4,3P<2>,3p3 4S*<3/2>,1677.6,2.2,,,,,,,,,,,
45,Rh XXXI,Rh,XXXI,30,Rhodium,P,[Ne].3s2.3p3,3p3,4S*<3/2>,3p2 3P<0>,1763,7,,,,,,,,,,,
45,Rh XXXII,Rh,XXXII,31,Rhodium,Si,[Ne].3s2.3p2,3p2,3P0,3p 2P*<1/2>,1851,4,,,,,,,,,,,
45,Rh XXXIII,Rh,XXXIII,32,Rhodium,Al,[Ne].3s2.3p,3p,2P*<1/2>,3s2 1S<0>,1903,9,,,,,,,,,,,
45,Rh XXXIV,Rh,XXXIV,33,Rhodium,Mg,[Ne].3s2,3s2,1S0,3s 2S<1/2>,2063,3,,,,,,,,,,,
45,Rh XXXV,Rh,XXXV,34,Rhodium,Na,[Ne].3s,3s,2S<1/2>,2p6 1S<0>,2129.22,0.07,,,,,,,,,,,
45,Rh XXXVI,Rh,XXXVI,35,Rhodium,Ne,1s2.2s2.2p6,2p6,1S0,2p5 2P*<3/2>,5018,3,,,,,,,,,,,
45,Rh XXXVII,Rh,XXXVII,36,Rhodium,F,1s2.2s2.2p5,2p5,2P*<3/2>,2p4 3P<2>,5203,8,,,,,,,,,,,
45,Rh XXXVIII,Rh,XXXVIII,37,Rhodium,O,1s2.2s2.2p4,2p4,3P<2>,"2p2<1/2>.2p<3/2> (0,3/2)*<3/2>",5406,11,,,,,,,,,,,
45,Rh XXXIX,Rh,XXXIX,38,Rhodium,N,1s2.2s2.2p3,2p2<1/2>.2p<3/2>,"(0,3/2)*<3/2>",2p2 3P<0>,5600,40,,,,,,,,,,,
45,Rh XL,Rh,XL,39,Rhodium,C,1s2.2s2.2p2,2p2,3P0,2p 2P*<1/2>,5940,7,,,,,,,,,,,
45,Rh XLI,Rh,XLI,40,Rhodium,B,1s2.2s2.2p,2p,2P*<1/2>,2s2 1S<0>,6161,5,,,,,,,,,,,
45,Rh XLII,Rh,XLII,41,Rhodium,Be,1s2.2s2,2s2,1S0,2s 2S<1/2>,6444,6,,,,,,,,,,,
45,Rh XLIII,Rh,XLIII,42,Rhodium,Li,1s2.2s,1s2.2s,2S<1/2>,1s2 1S<0>,6623.262,0.02,,,,,,,,,,,
45,Rh XLIV,Rh,XLIV,43,Rhodium,He,1s2,1s2,1S0,1s 2S<1/2>,27486.979,0.012,,,,,,,,,,,
45,Rh XLV,Rh,XLV,44,Rhodium,H,1s,1s,2S<1/2>,,28312.031,0.006,,,,,,,,,,,
46,Pd I,Pd,I,0,Palladium,Pd,[Kr].4d10,4d10,1S0,4d9 2D<5/2>,8.336839,0.00001,,,,,,,,,,,
46,Pd II,Pd,II,1,Palladium,Rh,[Kr].4d9,4d9,2D<5/2>,4d8 3F<4>,19.43,0.12,,,,,,,,,,,
46,Pd III,Pd,III,2,Palladium,Ru,[Kr].4d8,4d8,3F<4>,4d7 4F<9/2>,32.93,,,,,,,,,,,,
46,Pd IV,Pd,IV,3,Palladium,Tc,[Kr].4d7,4d7,4F<9/2>,4d6 5D<4>,46,1.7,,,,,,,,,,,
46,Pd V,Pd,V,4,Palladium,Mo,[Kr].4d6,4d6,5D<4>,4d5 6S<5/2>,61,1.9,,,,,,,,,,,
46,Pd VI,Pd,VI,5,Palladium,Nb,[Kr].4d5,4d5,6S<5/2>,4d4 5D<0>,84.1,2,,,,,,,,,,,
46,Pd VII,Pd,VII,6,Palladium,Zr,[Kr].4d4,4d4,5D0,4d3 4F<3/2>,101,2,,,,,,,,,,,
46,Pd VIII,Pd,VIII,7,Palladium,Y,[Kr].4d3,4d3,4F<3/2>,4d2 3F<2>,120,2.1,,,,,,,,,,,
46,Pd IX,Pd,IX,8,Palladium,Sr,[Kr].4d2,4d2,3F<2>,4d 2D<3/2>,141,2.2,,,,,,,,,,,
46,Pd X,Pd,X,9,Palladium,Rb,[Kr].4d,4d,2D<3/2>,4p6 1S<0>,159.9,2.2,,,,,,,,,,,
46,Pd XI,Pd,XI,10,Palladium,Kr,[Ar].3d10.4s2.4p6,4p6,1S0,4p5 2P*<3/2>,238.57,0.12,,,,,,,,,,,
46,Pd XII,Pd,XII,11,Palladium,Br,[Ar].3d10.4s2.4p5,4p5,2P*<3/2>,4p4 3P<2>,260,2.5,,,,,,,,,,,
46,Pd XIII,Pd,XIII,12,Palladium,Se,[Ar].3d10.4s2.4p4,4p4,3P<2>,4p3 4S*<3/2>,286,3,,,,,,,,,,,
46,Pd XIV,Pd,XIV,13,Palladium,As,[Ar].3d10.4s2.4p3,4p3,4S*<3/2>,4p2 3P<0>,311,3,,,,,,,,,,,
46,Pd XV,Pd,XV,14,Palladium,Ge,[Ar].3d10.4s2.4p2,4p2,3P0,4p 2P*<1/2>,342,3,,,,,,,,,,,
46,Pd XVI,Pd,XVI,15,Palladium,Ga,[Ar].3d10.4s2.4p,4p,2P*<1/2>,4s2 1S<0>,369.1,0.15,,,,,,,,,,,
46,Pd XVII,Pd,XVII,16,Palladium,Zn,[Ar].3d10.4s2,4s2,1S0,4s 2S<1/2>,427,3,,,,,,,,,,,
46,Pd XVIII,Pd,XVIII,17,Palladium,Cu,[Ar].3d10.4s,4s,2S<1/2>,3d10 1S<0>,457.5,0.15,,,,,,,,,,,
46,Pd XIX,Pd,XIX,18,Palladium,Ni,[Ar].3d10,3d10,1S0,3d9 2D<5/2>,810,3,,,,,,,,,,,
46,Pd XX,Pd,XX,19,Palladium,Co,[Ar].3d9,3d9,2D<5/2>,3d8 3F<4>,869,4,,,,,,,,,,,
46,Pd XXI,Pd,XXI,20,Palladium,Fe,[Ar].3d8,3d8,3F<4>,3d7 4F<9/2>,933,4,,,,,,,,,,,
46,Pd XXII,Pd,XXII,21,Palladium,Mn,[Ar].3d7,3d7,4F<9/2>,3d6 5D<4>,1000,4,,,,,,,,,,,
46,Pd XXIII,Pd,XXIII,22,Palladium,Cr,[Ar].3d6,3d6,5D<4>,3d5 6S<5/2>,1065,4,,,,,,,,,,,
46,Pd XXIV,Pd,XXIV,23,Palladium,V,[Ar].3d5,3d5,6S<5/2>,3d4 5D<0>,1145,4,,,,,,,,,,,
46,Pd XXV,Pd,XXV,24,Palladium,Ti,[Ar].3d4,3d4,5D0,3d3 4F<3/2>,1218,4,,,,,,,,,,,
46,Pd XXVI,Pd,XXVI,25,Palladium,Sc,[Ar].3d3,3d3,4F<3/2>,3d2 3F<2>,1290,4,,,,,,,,,,,
46,Pd XXVII,Pd,XXVII,26,Palladium,Ca,[Ar].3d2,3d2,3F<2>,3d 2D<3/2>,1366,4,,,,,,,,,,,
46,Pd XXVIII,Pd,XXVIII,27,Palladium,K,[Ar].3d,3d,2D<3/2>,3p6 1S<0>,1438,4,,,,,,,,,,,
46,Pd XXIX,Pd,XXIX,28,Palladium,Ar,[Ne].3s2.3p6,3p6,1S0,3p5 2P*<3/2>,1644,5,,,,,,,,,,,
46,Pd XXX,Pd,XXX,29,Palladium,Cl,[Ne].3s2.3p5,3p5,2P*<3/2>,3p4 3P<2>,1706.2,1.8,,,,,,,,,,,
46,Pd XXXI,Pd,XXXI,30,Palladium,S,[Ne].3s2.3p4,3p4,3P<2>,3p3 4S*<3/2>,1781.3,2.3,,,,,,,,,,,
46,Pd XXXII,Pd,XXXII,31,Palladium,P,[Ne].3s2.3p3,3p3,4S*<3/2>,3p2 3P<0>,1869,7,,,,,,,,,,,
46,Pd XXXIII,Pd,XXXIII,32,Palladium,Si,[Ne].3s2.3p2,3p2,3P0,3p 2P*<1/2>,1962,4,,,,,,,,,,,
46,Pd XXXIV,Pd,XXXIV,33,Palladium,Al,[Ne].3s2.3p,3p,2P*<1/2>,3s2 1S<0>,2016,9,,,,,,,,,,,
46,Pd XXXV,Pd,XXXV,34,Palladium,Mg,[Ne].3s2,3s2,1S0,3s 2S<1/2>,2181,3,,,,,,,,,,,
46,Pd XXXVI,Pd,XXXVI,35,Palladium,Na,[Ne].3s,3s,2S<1/2>,2p6 1S<0>,2248.87,0.07,,,,,,,,,,,
46,Pd XXXVII,Pd,XXXVII,36,Palladium,Ne,1s2.2s2.2p6,2p6,1S0,2p5 2P*<3/2>,5284,3,,,,,,,,,,,
46,Pd XXXVIII,Pd,XXXVIII,37,Palladium,F,1s2.2s2.2p5,2p5,2P*<3/2>,2p4 3P<2>,5475,9,,,,,,,,,,,
46,Pd XXXIX,Pd,XXXIX,38,Palladium,O,1s2.2s2.2p4,2p4,3P<2>,"2p2<1/2>.2p<3/2> (0,3/2)*<3/2>",5683,11,,,,,,,,,,,
46,Pd XL,Pd,XL,39,Palladium,N,1s2.2s2.2p3,2p2<1/2>.2p<3/2>,"(0,3/2)*<3/2>",2p2 3P<0>,5880,40,,,,,,,,,,,
46,Pd XLI,Pd,XLI,40,Palladium,C,1s2.2s2.2p2,2p2,3P0,2p 2P*<1/2>,6242,7,,,,,,,,,,,
46,Pd XLII,Pd,XLII,41,Palladium,B,1s2.2s2.2p,2p,2P*<1/2>,2s2 1S<0>,6469,5,,,,,,,,,,,
46,Pd XLIII,Pd,XLIII,42,Palladium,Be,1s2.2s2,2s2,1S0,2s 2S<1/2>,6759,6,,,,,,,,,,,
46,Pd XLIV,Pd,XLIV,43,Palladium,Li,1s2.2s,1s2.2s,2S<1/2>,1s2 1S<0>,6943.097,0.022,,,,,,,,,,,
46,Pd XLV,Pd,XLV,44,Palladium,He,1s2,1s2,1S0,1s 2S<1/2>,28776.032,0.014,,,,,,,,,,,
46,Pd XLVI,Pd,XLVI,45,Palladium,H,1s,1s,2S<1/2>,,29622.678,0.007,,,,,,,,,,,
47,Ag I,Ag,I,0,Silver,Ag,[Kr].4d10.5s,4d10.5s,2S<1/2>,4d10 1S<0>,7.576234,0.000025,,,,,,,,,,,
47,Ag II,Ag,II,1,Silver,Pd,[Kr].4d10,4d10,1S0,4d9 2D<5/2>,21.4844,0.0009,,,,,,,,,,,
47,Ag III,Ag,III,2,Silver,Rh,[Kr].4d9,4d9,2D<5/2>,4d8 3F<4>,34.8,0.3,,,,,,,,,,,
47,Ag IV,Ag,IV,3,Silver,Ru,[Kr].4d8,4d8,3F<4>,4d7 4F<9/2>,49,1.7,,,,,,,,,,,
47,Ag V,Ag,V,4,Silver,Tc,[Kr].4d7,4d7,4F<9/2>,4d6 5D<4>,65,1.9,,,,,,,,,,,
47,Ag VI,Ag,VI,5,Silver,Mo,[Kr].4d6,4d6,5D<4>,4d5 6S<5/2>,82,2,,,,,,,,,,,
47,Ag VII,Ag,VII,6,Silver,Nb,[Kr].4d5,4d5,6S<5/2>,4d4 5D<0>,106,2,,,,,,,,,,,
47,Ag VIII,Ag,VIII,7,Silver,Zr,[Kr].4d4,4d4,5D0,4d3 4F<3/2>,125,2.1,,,,,,,,,,,
47,Ag IX,Ag,IX,8,Silver,Y,[Kr].4d3,4d3,4F<3/2>,4d2 3F<2>,145.1,2.2,,,,,,,,,,,
47,Ag X,Ag,X,9,Silver,Sr,[Kr].4d2,4d2,3F<2>,4d 2D<3/2>,167,2.2,,,,,,,,,,,
47,Ag XI,Ag,XI,10,Silver,Rb,[Kr].4d,4d,2D<3/2>,4p6 1S<0>,188,2.4,,,,,,,,,,,
47,Ag XII,Ag,XII,11,Silver,Kr,[Ar].3d10.4s2.4p6,4p6,1S0,4p5 2P*<3/2>,271.46,0.12,,,,,,,,,,,
47,Ag XIII,Ag,XIII,12,Silver,Br,[Ar].3d10.4s2.4p5,4p5,2P*<3/2>,4p4 3P<2>,294,3,,,,,,,,,,,
47,Ag XIV,Ag,XIV,13,Silver,Se,[Ar].3d10.4s2.4p4,4p4,3P<2>,4p3 4S*<3/2>,321,3,,,,,,,,,,,
47,Ag XV,Ag,XV,14,Silver,As,[Ar].3d10.4s2.4p3,4p3,4S*<3/2>,4p2 3P<0>,347,3,,,,,,,,,,,
47,Ag XVI,Ag,XVI,15,Silver,Ge,[Ar].3d10.4s2.4p2,4p2,3P0,4p 2P*<1/2>,381,3,,,,,,,,,,,
47,Ag XVII,Ag,XVII,16,Silver,Ga,[Ar].3d10.4s2.4p,4p,2P*<1/2>,4s2 1S<0>,408.43,0.16,,,,,,,,,,,
47,Ag XVIII,Ag,XVIII,17,Silver,Zn,[Ar].3d10.4s2,4s2,1S0,4s 2S<1/2>,469,3,,,,,,,,,,,
47,Ag XIX,Ag,XIX,18,Silver,Cu,[Ar].3d10.4s,4s,2S<1/2>,3d10 1S<0>,500.87,0.16,,,,,,,,,,,
47,Ag XX,Ag,XX,19,Silver,Ni,[Ar].3d10,3d10,1S0,3d9 2D<5/2>,885,4,,,,,,,,,,,
47,Ag XXI,Ag,XXI,20,Silver,Co,[Ar].3d9,3d9,2D<5/2>,3d8 3F<4>,946,4,,,,,,,,,,,
47,Ag XXII,Ag,XXII,21,Silver,Fe,[Ar].3d8,3d8,3F<4>,3d7 4F<9/2>,1013,4,,,,,,,,,,,
47,Ag XXIII,Ag,XXIII,22,Silver,Mn,[Ar].3d7,3d7,4F<9/2>,3d6 5D<4>,1082,4,,,,,,,,,,,
47,Ag XXIV,Ag,XXIV,23,Silver,Cr,[Ar].3d6,3d6,5D<4>,3d5 6S<5/2>,1149,4,,,,,,,,,,,
47,Ag XXV,Ag,XXV,24,Silver,V,[Ar].3d5,3d5,6S<5/2>,3d4 5D<0>,1231,4,,,,,,,,,,,
47,Ag XXVI,Ag,XXVI,25,Silver,Ti,[Ar].3d4,3d4,5D0,3d3 4F<3/2>,1308,4,,,,,,,,,,,
47,Ag XXVII,Ag,XXVII,26,Silver,Sc,[Ar].3d3,3d3,4F<3/2>,3d2 3F<2>,1382,4,,,,,,,,,,,
47,Ag XXVIII,Ag,XXVIII,27,Silver,Ca,[Ar].3d2,3d2,3F<2>,3d 2D<3/2>,1460,4,,,,,,,,,,,
47,Ag XXIX,Ag,XXIX,28,Silver,K,[Ar].3d,3d,2D<3/2>,3p6 1S<0>,1535,4,,,,,,,,,,,
47,Ag XXX,Ag,XXX,29,Silver,Ar,[Ne].3s2.3p6,3p6,1S0,3p5 2P*<3/2>,1747,5,,,,,,,,,,,
47,Ag XXXI,Ag,XXXI,30,Silver,Cl,[Ne].3s2.3p5,3p5,2P*<3/2>,3p4 3P<2>,1810.5,1.9,,,,,,,,,,,
47,Ag XXXII,Ag,XXXII,31,Silver,S,[Ne].3s2.3p4,3p4,3P<2>,3p3 4S*<3/2>,1888,2.4,,,,,,,,,,,
47,Ag XXXIII,Ag,XXXIII,32,Silver,P,[Ne].3s2.3p3,3p3,4S*<3/2>,3p2 3P<0>,1979,8,,,,,,,,,,,
47,Ag XXXIV,Ag,XXXIV,33,Silver,Si,[Ne].3s2.3p2,3p2,3P0,3p 2P*<1/2>,2077,4,,,,,,,,,,,
47,Ag XXXV,Ag,XXXV,34,Silver,Al,[Ne].3s2.3p,3p,2P*<1/2>,3s2 1S<0>,2131,10,,,,,,,,,,,
47,Ag XXXVI,Ag,XXXVI,35,Silver,Mg,[Ne].3s2,3s2,1S0,3s 2S<1/2>,2302,3,,,,,,,,,,,
47,Ag XXXVII,Ag,XXXVII,36,Silver,Na,[Ne].3s,3s,2S<1/2>,2p6 1S<0>,2371.99,0.07,,,,,,,,,,,
47,Ag XXXVIII,Ag,XXXVIII,37,Silver,Ne,1s2.2s2.2p6,2p6,1S0,2p5 2P*<3/2>,5558,3,,,,,,,,,,,
47,Ag XXXIX,Ag,XXXIX,38,Silver,F,1s2.2s2.2p5,2p5,2P*<3/2>,2p4 3P<2>,5753,9,,,,,,,,,,,
47,Ag XL,Ag,XL,39,Silver,O,1s2.2s2.2p4,2p4,3P<2>,"2p2<1/2>.2p<3/2> (0,3/2)*<3/2>",5966,12,,,,,,,,,,,
47,Ag XLI,Ag,XLI,40,Silver,N,1s2.2s2.2p3,2p2<1/2>.2p<3/2>,"(0,3/2)*<3/2>",2p2 3P<0>,6170,40,,,,,,,,,,,
47,Ag XLII,Ag,XLII,41,Silver,C,1s2.2s2.2p2,2p2,3P0,2p 2P*<1/2>,6551,7,,,,,,,,,,,
47,Ag XLIII,Ag,XLIII,42,Silver,B,1s2.2s2.2p,2p,2P*<1/2>,2s2 1S<0>,6785,5,,,,,,,,,,,
47,Ag XLIV,Ag,XLIV,43,Silver,Be,1s2.2s2,2s2,1S0,2s 2S<1/2>,7082,7,,,,,,,,,,,
47,Ag XLV,Ag,XLV,44,Silver,Li,1s2.2s,1s2.2s,2S<1/2>,1s2 1S<0>,7271.298,0.024,,,,,,,,,,,
47,Ag XLVI,Ag,XLVI,45,Silver,He,1s2,1s2,1S0,1s 2S<1/2>,30097.314,0.015,,,,,,,,,,,
47,Ag XLVII,Ag,XLVII,46,Silver,H,1s,1s,2S<1/2>,,30965.78,0.007,,,,,,,,,,,
48,Cd I,Cd,I,0,Cadmium,Cd,[Kr].4d10.5s2,4d10.5s2,1S0,5s 2S<1/2>,8.99382,0.000016,,,,,,,,,,,
48,Cd II,Cd,II,1,Cadmium,Ag,[Kr].4d10.5s,4d10.5s,2S<1/2>,4d10 1S<0>,16.908313,0.000012,,,,,,,,,,,
48,Cd III,Cd,III,2,Cadmium,Pd,[Kr].4d10,4d10,1S0,4d9 2D<5/2>,37.468,0.006,,,,,,,,,,,
48,Cd IV,Cd,IV,3,Cadmium,Rh,[Kr].4d9,4d9,2D<5/2>,4d8 3F<4>,51,1.7,,,,,,,,,,,
48,Cd V,Cd,V,4,Cadmium,Ru,[Kr].4d8,4d8,3F<4>,4d7 4F<9/2>,67.9,1.9,,,,,,,,,,,
48,Cd VI,Cd,VI,5,Cadmium,Tc,[Kr].4d7,4d7,4F<9/2>,4d6 5D<4>,87,2,,,,,,,,,,,
48,Cd VII,Cd,VII,6,Cadmium,Mo,[Kr].4d6,4d6,5D<4>,4d5 6S<5/2>,105,2,,,,,,,,,,,
48,Cd VIII,Cd,VIII,7,Cadmium,Nb,[Kr].4d5,4d5,6S<5/2>,4d4 5D<0>,130.1,2.1,,,,,,,,,,,
48,Cd IX,Cd,IX,8,Cadmium,Zr,[Kr].4d4,4d4,5D0,4d3 4F<3/2>,150,2.2,,,,,,,,,,,
48,Cd X,Cd,X,9,Cadmium,Y,[Kr].4d3,4d3,4F<3/2>,4d2 3F<2>,173,2.2,,,,,,,,,,,