At. num,Sp. Name,Element,Valence,Ion Charge,El. Name,Isoel. Seq.,Ground Shells (a),Ground Config.,Ground Level,Ionized Level,Ionization Energy (b) (eV),Uncertainty (c) (eV),,,,,,,,,,,
74,W XL,W,XL,39,Tungsten,Br,[Ar].3d10.4s2.4p5,3d10.4s2.4p5,2P*<3/2>,4p4 3P<2>,1882.9,2,,,,,,,,,,,
74,W XLI,W,XLI,40,Tungsten,Se,[Ar].3d10.4s2.4p4,3d10.4s2.4p4,3P<2>,4p3 2D*<3/2>,1940.6,2,,,,,,,,,,,
74,W XLII,W,XLII,41,Tungsten,As,[Ar].3d10.4s2.4p3,3d10.4s2.4p3,2D*<3/2>,4p2 3P<0>,1994.8,2,,,,,,,,,,,
74,W XLIII,W,XLIII,42,Tungsten,Ge,[Ar].3d10.4s2.4p2,3d10.4s2.4p2,3P0,4p 2P*<1/2>,2149.1,2.1,,,,,,,,,,,
74,W XLIV,W,XLIV,43,Tungsten,Ga,[Ar].3d10.4s2.4p,3d10.4s2.4p,2P*<1/2>,4s2 1S<0>,2210,1.5,,,,,,,,,,,
74,W XLV,W,XLV,44,Tungsten,Zn,[Ar].3d10.4s2,3d10.4s2,1S0,4s 2S<1/2>,2354.5,1.4,,,,,,,,,,,
74,W XLVI,W,XLVI,45,Tungsten,Cu,[Ar].3d10.4s,3d10.4s,2S<1/2>,3d10 1S<0>,2414.1,0.4,,,,,,,,,,,
74,W XLVII,W,XLVII,46,Tungsten,Ni,[Ar].3d10,3p6.3d10,1S0,3d9 2D<5/2>,4057,3,,,,,,,,,,,
74,W XLVIII,W,XLVIII,47,Tungsten,Co,[Ar].3d9,3p6.3d9,2D<5/2>,"3d4<3/2>.3d4<5/2> (0,4)<4>",4180,4,,,,,,,,,,,
74,W XLIX,W,XLIX,48,Tungsten,Fe,[Ar].3d8,3d4<3/2>.3d4<5/2>,"(0,4)<4>","3d4<3/2>.3d3<5/2> (0,9/2)<9/2>",4309,4,,,,,,,,,,,
74,W L,W,L,49,Tungsten,Mn,[Ar].3d7,3d-4.3d+3,"(0,9/2)<9/2>","3d-4.3d+2 (0,4)<4>",4446,4,,,,,,,,,,,
74,W LI,W,LI,50,Tungsten,Cr,[Ar].3d6,3d-4.3d+2,"(0,4)<4>","3d-4.3d+ (0,5/2)<5/2>",4578,4,,,,,,,,,,,
74,W LII,W,LII,51,Tungsten,V,[Ar].3d5,3d-4.3d+,"(0,5/2)<5/2>","3d-4 (0,0)<0>",4709,4,,,,,,,,,,,
74,W LIII,W,LIII,52,Tungsten,Ti,[Ar].3d4,3d4<3/2>,"(0,0)0","3d3 (3/2,0)<3/2>",4927,4,,,,,,,,,,,
74,W LIV,W,LIV,53,Tungsten,Sc,[Ar].3d3,3d3<3/2>,"(3/2,0)<3/2>","3d2 (3/2,3/2)<2>",5063,4,,,,,,,,,,,
74,W LV,W,LV,54,Tungsten,Ca,[Ar].3d2,3d2,"(3/2,3/2)<2>",3d 2D<3/2>,5209,4,,,,,,,,,,,
74,W LVI,W,LVI,55,Tungsten,K,[Ar].3d,3p6.3d,2D<3/2>,3p6 1S<0>,5348,4,,,,,,,,,,,
74,W LVII,W,LVII,56,Tungsten,Ar,[Ne].3s2.3p6,3p6,1S0,3p5 2P*<3/2>,5719,5,,,,,,,,,,,
74,W LVIII,W,LVIII,57,Tungsten,Cl,[Ne].3s2.3p5,3s2.3p5,2P*<3/2>,3p4 3P<2>,5840,5,,,,,,,,,,,
74,W LIX,W,LIX,58,Tungsten,S,[Ne].3s2.3p4,3s2.3p4,3P<2>,3p3 2P*<3/2>,5970,5,,,,,,,,,,,
74,W LX,W,LX,59,Tungsten,P,[Ne].3s2.3p3,3s2.3p3,2P*<3/2>,3p2 3P<0>,6093,5,,,,,,,,,,,
74,W LXI,W,LXI,60,Tungsten,Si,[Ne].3s2.3p2,3s2.3p2,3P0,3p 2P*<1/2>,6596,7,,,,,,,,,,,
74,W LXII,W,LXII,61,Tungsten,Al,[Ne].3s2.3p,3s2.3p,2P*<1/2>,3s2 1S<0>,6735,7,,,,,,,,,,,
74,W LXIII,W,LXIII,62,Tungsten,Mg,[Ne].3s2,3s2,1S0,3s 2S<1/2>,7000,7,,,,,,,,,,,
74,W LXIV,W,LXIV,63,Tungsten,Na,[Ne].3s,3s,2S<1/2>,2p6 1S<0>,7130,7,,,,,,,,,,,
74,W LXV,W,LXV,64,Tungsten,Ne,1s2.2s2.2p6,2s2.2p6,1S0,2p5 2P*<3/2>,15566,11,,,,,,,,,,,
74,W LXVI,W,LXVI,65,Tungsten,F,1s2.2s2.2p5,2s2.2p5,2P*<3/2>,2p4 3P<2>,15896,11,,,,,,,,,,,
74,W LXVII,W,LXVII,66,Tungsten,O,1s2.2s2.2p4,2s2.2p4,3P<2>,2p3 2P*<3/2>,16252,11,,,,,,,,,,,
74,W LXVIII,W,LXVIII,67,Tungsten,N,1s2.2s2.2p3,2s2.2p3,2P*<3/2>,2p2 3P<0>,16588,11,,,,,,,,,,,
74,W LXIX,W,LXIX,68,Tungsten,C,1s2.2s2.2p2,2s2.2p2,3P0,2p 2P*<1/2>,18476,4,,,,,,,,,,,
74,W LXX,W,LXX,69,Tungsten,B,1s2.2s2.2p,2s2.2p,2P*<1/2>,2s2 1S<0>,18872,3,,,,,,,,,,,
74,W LXXI,W,LXXI,70,Tungsten,Be,1s2.2s2,1s2.2s2,1S0,2s 2S<1/2>,19362,3,,,,,,,,,,,
74,W LXXII,W,LXXII,71,Tungsten,Li,1s2.2s,1s2.2s,2S<1/2>,1s2 1S<0>,19686.74,0.2,,,,,,,,,,,
74,W LXXIII,W,LXXIII,72,Tungsten,He,1s2,1s2,1S0,1s 2S<1/2>,79181.94,0.19,,,,,,,,,,,
74,W LXXIV,W,LXXIV,73,Tungsten,H,1s,1s,2S<1/2>,,80755.91,0.14,,,,,,,,,,,
75,Re I,Re,I,0,Rhenium,Re,[Xe].4f14.5d5.6s2,5d5.6s2,6S<5/2>,5d5.6s 7S<3>,7.83352,0.00011,,,,,,,,,,,
75,Re II,Re,II,1,Rhenium,W,[Xe].4f14.5d5.6s,5d5.(6S).6s,7S<3>,5d5 6S<5/2>,16.6,0.5,,,,,,,,,,,
75,Re III,Re,III,2,Rhenium,Ta,[Xe].4f14.5d5,5d5,6S<5/2>,5d4 5D<0>,27,1.6,,,,,,,,,,,
75,Re IV,Re,IV,3,Rhenium,Hf,[Xe].4f14.5d4,5d4,5D0,5d3 4F<3/2>,39.1,1.7,,,,,,,,,,,
75,Re V,Re,V,4,Rhenium,Lu,[Xe].4f14.5d3,5d3,4F<3/2>,5d2 3F<2>,51.9,1.9,,,,,,,,,,,
75,Re VI,Re,VI,5,Rhenium,Yb,[Xe].4f14.5d2,5d2,3F<2>,5d 2D<3/2>,67,2,,,,,,,,,,,
75,Re VII,Re,VII,6,Rhenium,Tm,[Xe].4f14.5d,5d,2D<3/2>,4f14 1S<0>,82.71,0.05,,,,,,,,,,,
75,Re VIII,Re,VIII,7,Rhenium,Er,[Xe].4f14,4f14,1S0,4f14.5p5 2P*<3/2>,144.4,0.4,,,,,,,,,,,
75,Re IX,Re,IX,8,Rhenium,Ho,[Cd].4f14.5p5,4f14.5p5,2P*<3/2>,4f14.5p4 3P<2>,165,8,,,,,,,,,,,
75,Re X,Re,X,9,Rhenium,Dy,[Cd].4f14.5p4,4f14.5p4,3P<2>,4f14.5p3 2P*<3/2>,187,9,,,,,,,,,,,
75,Re XI,Re,XI,10,Rhenium,Tb,[Cd].4f14.5p3,4f14.5p3,2P*<3/2>,4f14.5p2 3P<0>,208,10,,,,,,,,,,,
75,Re XII,Re,XII,11,Rhenium,Gd,[Cd].4f14.5p2,4f14.5p2,3P0,4f13.5p2 4F*<7/2>,236,12,,,,,,,,,,,
75,Re XIII,Re,XIII,12,Rhenium,Eu,[Cd].4f13.5p2,4f13.5p2,4F*<7/2>,4f13.5p,268,14,,,,,,,,,,,
75,Re XIV,Re,XIV,13,Rhenium,Sm,[Cd].4f14,4f14,1S0,4f13.5s2 2F*<7/2>,291,15,,,,,,,,,,,
75,Re XV,Re,XV,14,Rhenium,Pm,[Cd].4f13,4f13.5s2,2F*<7/2>,4f12.5s2 3H<6>,330,16,,,,,,,,,,,
75,Re XVI,Re,XVI,15,Rhenium,Nd,[Cd].4f12,4f12.5s2,3H<6>,4f11.5s2 4I*<15/2>,377,19,,,,,,,,,,,
75,Re XVII,Re,XVII,16,Rhenium,Pr,[Cd].4f11,4f11.5s2,4I*<15/2>,4f12,403,20,,,,,,,,,,,
75,Re XVIII,Re,XVIII,17,Rhenium,Ce,[Kr].4d10.4f12,4f12,,4f11 4I*<15/2>,429,21,,,,,,,,,,,
75,Re XIX,Re,XIX,18,Rhenium,La,[Kr].4d10.4f11,4f11,4I*<15/2>,4f10 5I<8>,476,24,,,,,,,,,,,
75,Re XX,Re,XX,19,Rhenium,Ba,[Kr].4d10.4f10,4f10,5I<8>,4f9 6H*<15/2>,520,30,,,,,,,,,,,
75,Re XXI,Re,XXI,20,Rhenium,Cs,[Kr].4d10.4f9,4f9,6H*<15/2>,4f8 7F<6>,570,30,,,,,,,,,,,
75,Re XXII,Re,XXII,21,Rhenium,Xe,[Kr].4d10.4f8,4f8,7F<6>,4f7 8S*<7/2>,620,30,,,,,,,,,,,
75,Re XXIII,Re,XXIII,22,Rhenium,I,[Kr].4d10.4f7,4f7,8S*<7/2>,4f6 7F<0>,670,30,,,,,,,,,,,
75,Re XXIV,Re,XXIV,23,Rhenium,Te,[Kr].4d10.4f6,4f6,7F0,4f5 6H*<5/2>,720,40,,,,,,,,,,,
75,Re XXV,Re,XXV,24,Rhenium,Sb,[Kr].4d10.4f5,4f5,6H*<5/2>,4f4 5I<4>,760,40,,,,,,,,,,,
75,Re XXVI,Re,XXVI,25,Rhenium,Sn,[Kr].4d10.4f4,4f4,5I<4>,4f3 4I*<9/2>,810,40,,,,,,,,,,,
75,Re XXVII,Re,XXVII,26,Rhenium,In,[Kr].4d10.4f3,4f3,4I*<9/2>,4f2 3H<4>,860,40,,,,,,,,,,,
75,Re XXVIII,Re,XXVIII,27,Rhenium,Cd,[Kr].4d10.4f2,4f2,3H<4>,4f 2F*<5/2>,910,50,,,,,,,,,,,
75,Re XXIX,Re,XXIX,28,Rhenium,Ag,[Kr].4d10.4f,4f,2F*<5/2>,4d10 1S<0>,953,19,,,,,,,,,,,
75,Re XXX,Re,XXX,29,Rhenium,Pd,[Kr].4d10,4d10,1S0,4d9 2D<5/2>,1194,4,,,,,,,,,,,
75,Re XXXI,Re,XXXI,30,Rhenium,Rh,[Kr].4d9,4d9,2D<5/2>,4d8 3F<4>,1242,4,,,,,,,,,,,
75,Re XXXII,Re,XXXII,31,Rhenium,Ru,[Kr].4d8,4d8,3F<4>,4d7 4F<9/2>,1294,4,,,,,,,,,,,
75,Re XXXIII,Re,XXXIII,32,Rhenium,Tc,[Kr].4d7,4d7,4F<9/2>,4d6 5D<4>,1349,4,,,,,,,,,,,
75,Re XXXIV,Re,XXXIV,33,Rhenium,Mo,[Kr].4d6,4d6,5D<4>,"4d-4.4d+ (0,5/2)<5/2>",1402,5,,,,,,,,,,,
75,Re XXXV,Re,XXXV,34,Rhenium,Nb,[Kr].4d5,4d-4.4d+,"(0,5/2)<5/2>",4d4 5D<0>,1454,5,,,,,,,,,,,
75,Re XXXVI,Re,XXXVI,35,Rhenium,Zr,[Kr].4d4,4d4,5D0,4d3 4F<3/2>,1530,5,,,,,,,,,,,
75,Re XXXVII,Re,XXXVII,36,Rhenium,Y,[Kr].4d3,4d3,4F<3/2>,4d2 3F<2>,1583,5,,,,,,,,,,,
75,Re XXXVIII,Re,XXXVIII,37,Rhenium,Sr,[Kr].4d2,4d2,3F<2>,4d 2D<3/2>,1641,4,,,,,,,,,,,
75,Re XXXIX,Re,XXXIX,38,Rhenium,Rb,[Kr].4d,4d,2D<3/2>,4p6 1S<0>,1696,4,,,,,,,,,,,
75,Re XL,Re,XL,39,Rhenium,Kr,[Ar].3d10.4s2.4p6,4p6,1S0,4p5 2P*<3/2>,1912,4,,,,,,,,,,,
75,Re XLI,Re,XLI,40,Rhenium,Br,[Ar].3d10.4s2.4p5,4p5,2P*<3/2>,4p4 3P<2>,1966,4,,,,,,,,,,,
75,Re XLII,Re,XLII,41,Rhenium,Se,[Ar].3d10.4s2.4p4,4p4,3P<2>,"4p-2.4p+ (0,3/2)*<3/2>",2025,4,,,,,,,,,,,
75,Re XLIII,Re,XLIII,42,Rhenium,As,[Ar].3d10.4s2.4p3,4p-2.4p+,"(0,3/2)*<3/2>",4p2 3P<0>,2080,4,,,,,,,,,,,
75,Re XLIV,Re,XLIV,43,Rhenium,Ge,[Ar].3d10.4s2.4p2,4p2,3P0,4p 2P*<1/2>,2240,4,,,,,,,,,,,
75,Re XLV,Re,XLV,44,Rhenium,Ga,[Ar].3d10.4s2.4p,4p,2P*<1/2>,4s2 1S<0>,2302,4,,,,,,,,,,,
75,Re XLVI,Re,XLVI,45,Rhenium,Zn,[Ar].3d10.4s2,4s2,1S0,4s 2S<1/2>,2450,4,,,,,,,,,,,
75,Re XLVII,Re,XLVII,46,Rhenium,Cu,[Ar].3d10.4s,4s,2S<1/2>,3d10 1S<0>,2514.5,0.3,,,,,,,,,,,
75,Re XLVIII,Re,XLVIII,47,Rhenium,Ni,[Ar].3d10,3d10,1S0,3d9 2D<5/2>,4214,4,,,,,,,,,,,
75,Re XLIX,Re,XLIX,48,Rhenium,Co,[Ar].3d9,3d9,2D<5/2>,3d8 3F<4>,4335,4,,,,,,,,,,,
75,Re L,Re,L,49,Rhenium,Fe,[Ar].3d8,3d8,3F<4>,3d7 4F<9/2>,4468,4,,,,,,,,,,,
75,Re LI,Re,LI,50,Rhenium,Mn,[Ar].3d7,3d7,4F<9/2>,"3d-4.3d+2 (0,4)<4>",4609,4,,,,,,,,,,,
75,Re LII,Re,LII,51,Rhenium,Cr,[Ar].3d6,3d-4.3d+2,"(0,4)<4>","3d-4.3d+ (0,5/2)<5/2>",4745,4,,,,,,,,,,,
75,Re LIII,Re,LIII,52,Rhenium,V,[Ar].3d5,3d-4.3d+,"(0,5/2)<5/2>",3d4 5D<0>,4877,4,,,,,,,,,,,
75,Re LIV,Re,LIV,53,Rhenium,Ti,[Ar].3d4,3d4,5D0,3d3 4F<3/2>,5099,5,,,,,,,,,,,
75,Re LV,Re,LV,54,Rhenium,Sc,[Ar].3d3,3d3,4F<3/2>,3d2 3F<2>,5236,5,,,,,,,,,,,
75,Re LVI,Re,LVI,55,Rhenium,Ca,[Ar].3d2,3d2,3F<2>,3d 2D<3/2>,5388,5,,,,,,,,,,,
75,Re LVII,Re,LVII,56,Rhenium,K,[Ar].3d,3d,2D<3/2>,3p6 1S<0>,5528,5,,,,,,,,,,,
75,Re LVIII,Re,LVIII,57,Rhenium,Ar,[Ne].3s2.3p6,3p6,1S0,3p5 2P*<3/2>,5919,6,,,,,,,,,,,
75,Re LIX,Re,LIX,58,Rhenium,Cl,[Ne].3s2.3p5,3p5,2P*<3/2>,3p4 3P<2>,6042,6,,,,,,,,,,,
75,Re LX,Re,LX,59,Rhenium,S,[Ne].3s2.3p4,3p4,3P<2>,3p3 2P*<3/2>,6176,7,,,,,,,,,,,
75,Re LXI,Re,LXI,60,Rhenium,P,[Ne].3s2.3p3,3p3,2P*<3/2>,3p2 3P<0>,6300,10,,,,,,,,,,,
75,Re LXII,Re,LXII,61,Rhenium,Si,[Ne].3s2.3p2,3p2,3P0,3p 2P*<1/2>,6810,12,,,,,,,,,,,
75,Re LXIII,Re,LXIII,62,Rhenium,Al,[Ne].3s2.3p,3p,2P*<1/2>,3s2 1S<0>,6952,15,,,,,,,,,,,
75,Re LXIV,Re,LXIV,63,Rhenium,Mg,[Ne].3s2,3s2,1S0,3s 2S<1/2>,7230,19,,,,,,,,,,,
75,Re LXV,Re,LXV,64,Rhenium,Na,[Ne].3s,3s,2S<1/2>,2p6 1S<0>,7366,24,,,,,,,,,,,
75,Re LXVI,Re,LXVI,65,Rhenium,Ne,1s2.2s2.2p6,2p6,1S0,2p5 2P*<3/2>,16080,30,,,,,,,,,,,
75,Re LXVII,Re,LXVII,66,Rhenium,F,1s2.2s2.2p5,2p5,2P*<3/2>,2p4 3P<2>,16410,40,,,,,,,,,,,
75,Re LXVIII,Re,LXVIII,67,Rhenium,O,1s2.2s2.2p4,2p4,3P<2>,"2p2<1/2>.2p<3/2> (0,3/2)*<3/2>",16780,40,,,,,,,,,,,
75,Re LXIX,Re,LXIX,68,Rhenium,N,1s2.2s2.2p3,2p2<1/2>.2p<3/2>,"(0,3/2)*<3/2>",2p2 3P<0>,17120,50,,,,,,,,,,,
75,Re LXX,Re,LXX,69,Rhenium,C,1s2.2s2.2p2,2p2,3P0,2p 2P*<1/2>,19000,50,,,,,,,,,,,
75,Re LXXI,Re,LXXI,70,Rhenium,B,1s2.2s2.2p,2p,2P*<1/2>,2s2 1S<0>,19420,60,,,,,,,,,,,
75,Re LXXII,Re,LXXII,71,Rhenium,Be,1s2.2s2,2s2,1S0,2s 2S<1/2>,19950,60,,,,,,,,,,,
75,Re LXXIII,Re,LXXIII,72,Rhenium,Li,1s2.2s,1s2.2s,2S<1/2>,1s2 1S<0>,20297.4,0.21,,,,,,,,,,,
75,Re LXXIV,Re,LXXIV,73,Rhenium,He,1s2,1s2,1S0,1s 2S<1/2>,81556.58,0.2,,,,,,,,,,,
75,Re LXXV,Re,LXXV,74,Rhenium,H,1s,1s,2S<1/2>,,83162.41,0.24,,,,,,,,,,,
76,Os I,Os,I,0,Osmium,Os,[Xe].4f14.5d6.6s2,5d6.6s2,5D<4>,5d6.6s 6D<9/2>,8.43823,0.0002,,,,,,,,,,,
76,Os II,Os,II,1,Osmium,Re,[Xe].4f14.5d6.6s,5d6.(5D).6s,6D<9/2>,5d6 5D<4>,17,1,,,,,,,,,,,
76,Os III,Os,III,2,Osmium,W,[Xe].4f14.5d6,5d6,5D<4>,5d5 6S<5/2>,25,1.6,,,,,,,,,,,
76,Os IV,Os,IV,3,Osmium,Ta,[Xe].4f14.5d5,5d5,6S<5/2>,5d4 5D<0>,41,1.7,,,,,,,,,,,
76,Os V,Os,V,4,Osmium,Hf,[Xe].4f14.5d4,5d4,5D0,5d3 4F<3/2>,55,1.9,,,,,,,,,,,
76,Os VI,Os,VI,5,Osmium,Lu,[Xe].4f14.5d3,5d3,4F<3/2>,5d2 3F<2>,70.1,2,,,,,,,,,,,
76,Os VII,Os,VII,6,Osmium,Yb,[Xe].4f14.5d2,5d2,3F<2>,5d 2D<3/2>,85.1,2,,,,,,,,,,,
76,Os VIII,Os,VIII,7,Osmium,Tm,[Xe].4f14.5d,5d,2D<3/2>,4f14 1S<0>,102.02,0.07,,,,,,,,,,,
76,Os IX,Os,IX,8,Osmium,Er,[Xe].4f14,4f14,1S0,4f14.5p5 2P*<3/2>,168.7,0.5,,,,,,,,,,,
76,Os X,Os,X,9,Osmium,Ho,[Cd].4f14.5p5,4f14.5p5,2P*<3/2>,4f14.5p4 3P<2>,190,10,,,,,,,,,,,
76,Os XI,Os,XI,10,Osmium,Dy,[Cd].4f14.5p4,4f14.5p4,3P<2>,4f14.5p3 2P*<3/2>,213,11,,,,,,,,,,,
76,Os XII,Os,XII,11,Osmium,Tb,[Cd].4f14.5p3,4f14.5p3,2P*<3/2>,4f14.5p2 3P<0>,235,12,,,,,,,,,,,
76,Os XIII,Os,XIII,12,Osmium,Gd,[Cd].4f14.5p2,4f14.5p2,3P0,4f13.5p2 4F*<7/2>,269,14,,,,,,,,,,,
76,Os XIV,Os,XIV,13,Osmium,Eu,[Cd].4f13.5p2,4f13.5p2,4F*<7/2>,4f13.5p,298,15,,,,,,,,,,,
76,Os XV,Os,XV,14,Osmium,Sm,[Cd].4f14,4f14,1S0,4f13.5s2 2F*<7/2>,322,16,,,,,,,,,,,
76,Os XVI,Os,XVI,15,Osmium,Pm,[Cd].4f13,4f13.5s2,2F*<7/2>,4f12.5s2 3H<6>,367,19,,,,,,,,,,,
76,Os XVII,Os,XVII,16,Osmium,Nd,[Cd].4f12,4f12.5s2,3H<6>,4f12.5s,410,21,,,,,,,,,,,
76,Os XVIII,Os,XVIII,17,Osmium,Pr,[Kr].4d10.4f12.5s,4f12.5s,,4f12,436,22,,,,,,,,,,,
76,Os XIX,Os,XIX,18,Osmium,Ce,[Kr].4d10.4f12,4f12,,4f11 4I*<15/2>,470,24,,,,,,,,,,,
76,Os XX,Os,XX,19,Osmium,La,[Kr].4d10.4f11,4f11,4I*<15/2>,4f10 5I<8>,520,30,,,,,,,,,,,
76,Os XXI,Os,XXI,20,Osmium,Ba,[Kr].4d10.4f10,4f10,5I<8>,4f9 6H*<15/2>,570,30,,,,,,,,,,,
76,Os XXII,Os,XXII,21,Osmium,Cs,[Kr].4d10.4f9,4f9,6H*<15/2>,4f8 7F<6>,620,30,,,,,,,,,,,
76,Os XXIII,Os,XXIII,22,Osmium,Xe,[Kr].4d10.4f8,4f8,7F<6>,4f7 8S*<7/2>,670,30,,,,,,,,,,,
76,Os XXIV,Os,XXIV,23,Osmium,I,[Kr].4d10.4f7,4f7,8S*<7/2>,4f6 7F<0>,720,40,,,,,,,,,,,
76,Os XXV,Os,XXV,24,Osmium,Te,[Kr].4d10.4f6,4f6,7F0,4f5 6H*<5/2>,770,40,,,,,,,,,,,
76,Os XXVI,Os,XXVI,25,Osmium,Sb,[Kr].4d10.4f5,4f5,6H*<5/2>,4f4 5I<4>,820,40,,,,,,,,,,,
76,Os XXVII,Os,XXVII,26,Osmium,Sn,[Kr].4d10.4f4,4f4,5I<4>,4f3 4I*<9/2>,870,40,,,,,,,,,,,
76,Os XXVIII,Os,XXVIII,27,Osmium,In,[Kr].4d10.4f3,4f3,4I*<9/2>,4f2 3H<4>,920,50,,,,,,,,,,,
76,Os XXIX,Os,XXIX,28,Osmium,Cd,[Kr].4d10.4f2,4f2,3H<4>,4f 2F*<5/2>,970,50,,,,,,,,,,,
76,Os XXX,Os,XXX,29,Osmium,Ag,[Kr].4d10.4f,4f,2F*<5/2>,4d10 1S<0>,1015,25,,,,,,,,,,,
76,Os XXXI,Os,XXXI,30,Osmium,Pd,[Kr].4d10,4d10,1S0,4d9 2D<5/2>,1262,4,,,,,,,,,,,
76,Os XXXII,Os,XXXII,31,Osmium,Rh,[Kr].4d9,4d9,2D<5/2>,4d8 3F<4>,1311,4,,,,,,,,,,,
76,Os XXXIII,Os,XXXIII,32,Osmium,Ru,[Kr].4d8,4d8,3F<4>,4d7 4F<9/2>,1364,4,,,,,,,,,,,
76,Os XXXIV,Os,XXXIV,33,Osmium,Tc,[Kr].4d7,4d7,4F<9/2>,4d6 5D<4>,1420,5,,,,,,,,,,,
76,Os XXXV,Os,XXXV,34,Osmium,Mo,[Kr].4d6,4d6,5D<4>,"4d-4.4d+ (0,5/2)<5/2>",1474,5,,,,,,,,,,,
76,Os XXXVI,Os,XXXVI,35,Osmium,Nb,[Kr].4d5,4d-4.4d+,"(0,5/2)<5/2>",4d4 5D<0>,1528,5,,,,,,,,,,,
76,Os XXXVII,Os,XXXVII,36,Osmium,Zr,[Kr].4d4,4d4,5D0,4d3 4F<3/2>,1606,5,,,,,,,,,,,
76,Os XXXVIII,Os,XXXVIII,37,Osmium,Y,[Kr].4d3,4d3,4F<3/2>,4d2 3F<2>,1660,4,,,,,,,,,,,
76,Os XXXIX,Os,XXXIX,38,Osmium,Sr,[Kr].4d2,4d2,3F<2>,4d 2D<3/2>,1720,4,,,,,,,,,,,
76,Os XL,Os,XL,39,Osmium,Rb,[Kr].4d,4d,2D<3/2>,4p6 1S<0>,1776,4,,,,,,,,,,,
76,Os XLI,Os,XLI,40,Osmium,Kr,[Ar].3d10.4s2.4p6,4p6,1S0,4p5 2P*<3/2>,1996,4,,,,,,,,,,,
76,Os XLII,Os,XLII,41,Osmium,Br,[Ar].3d10.4s2.4p5,4p5,2P*<3/2>,4p4 3P<2>,2052,4,,,,,,,,,,,
76,Os XLIII,Os,XLIII,42,Osmium,Se,[Ar].3d10.4s2.4p4,4p4,3P<2>,"4p-2.4p+ (0,3/2)*<3/2>",2112,4,,,,,,,,,,,
76,Os XLIV,Os,XLIV,43,Osmium,As,[Ar].3d10.4s2.4p3,4p-2.4p+,"(0,3/2)*<3/2>",4p2 3P<0>,2168,4,,,,,,,,,,,
76,Os XLV,Os,XLV,44,Osmium,Ge,[Ar].3d10.4s2.4p2,4p2,3P0,4p 2P*<1/2>,2336,4,,,,,,,,,,,
76,Os XLVI,Os,XLVI,45,Osmium,Ga,[Ar].3d10.4s2.4p,4p,2P*<1/2>,4s2 1S<0>,2400,4,,,,,,,,,,,
76,Os XLVII,Os,XLVII,46,Osmium,Zn,[Ar].3d10.4s2,4s2,1S0,4s 2S<1/2>,2552,4,,,,,,,,,,,
76,Os XLVIII,Os,XLVIII,47,Osmium,Cu,[Ar].3d10.4s,4s,2S<1/2>,3d10 1S<0>,2615.5,1.4,,,,,,,,,,,
76,Os XLIX,Os,XLIX,48,Osmium,Ni,[Ar].3d10,3d10,1S0,3d9 2D<5/2>,4374,4,,,,,,,,,,,
76,Os L,Os,L,49,Osmium,Co,[Ar].3d9,3d9,2D<5/2>,3d8 3F<4>,4501,4,,,,,,,,,,,
76,Os LI,Os,LI,50,Osmium,Fe,[Ar].3d8,3d8,3F<4>,3d7 4F<9/2>,4635,4,,,,,,,,,,,
76,Os LII,Os,LII,51,Osmium,Mn,[Ar].3d7,3d7,4F<9/2>,"3d-4.3d+2 (0,4)<4>",4779,4,,,,,,,,,,,
76,Os LIII,Os,LIII,52,Osmium,Cr,[Ar].3d6,3d-4.3d+2,"(0,4)<4>","3d-4.3d+ (0,5/2)<5/2>",4917,4,,,,,,,,,,,
76,Os LIV,Os,LIV,53,Osmium,V,[Ar].3d5,3d-4.3d+,"(0,5/2)<5/2>",3d4 5D<0>,5052,5,,,,,,,,,,,
76,Os LV,Os,LV,54,Osmium,Ti,[Ar].3d4,3d4,5D0,3d3 4F<3/2>,5280,5,,,,,,,,,,,
76,Os LVI,Os,LVI,55,Osmium,Sc,[Ar].3d3,3d3,4F<3/2>,3d2 3F<2>,5421,5,,,,,,,,,,,
76,Os LVII,Os,LVII,56,Osmium,Ca,[Ar].3d2,3d2,3F<2>,3d 2D<3/2>,5575,5,,,,,,,,,,,
76,Os LVIII,Os,LVIII,57,Osmium,K,[Ar].3d,3d,2D<3/2>,3p6 1S<0>,5717,6,,,,,,,,,,,
76,Os LIX,Os,LIX,58,Osmium,Ar,[Ne].3s2.3p6,3p6,1S0,3p5 2P*<3/2>,6115,6,,,,,,,,,,,
76,Os LX,Os,LX,59,Osmium,Cl,[Ne].3s2.3p5,3p5,2P*<3/2>,3p4 3P<2>,6240,7,,,,,,,,,,,
76,Os LXI,Os,LXI,60,Osmium,S,[Ne].3s2.3p4,3p4,3P<2>,3p3 2P*<3/2>,6376,10,,,,,,,,,,,
76,Os LXII,Os,LXII,61,Osmium,P,[Ne].3s2.3p3,3p3,2P*<3/2>,3p2 3P<0>,6503,12,,,,,,,,,,,
76,Os LXIII,Os,LXIII,62,Osmium,Si,[Ne].3s2.3p2,3p2,3P0,3p 2P*<1/2>,7039,15,,,,,,,,,,,
76,Os LXIV,Os,LXIV,63,Osmium,Al,[Ne].3s2.3p,3p,2P*<1/2>,3s2 1S<0>,7185,19,,,,,,,,,,,
76,Os LXV,Os,LXV,64,Osmium,Mg,[Ne].3s2,3s2,1S0,3s 2S<1/2>,7468,24,,,,,,,,,,,
76,Os LXVI,Os,LXVI,65,Osmium,Na,[Ne].3s,3s,2S<1/2>,2p6 1S<0>,7610,30,,,,,,,,,,,
76,Os LXVII,Os,LXVII,66,Osmium,Ne,1s2.2s2.2p6,2p6,1S0,2p5 2P*<3/2>,16560,40,,,,,,,,,,,
76,Os LXVIII,Os,LXVIII,67,Osmium,F,1s2.2s2.2p5,2p5,2P*<3/2>,2p4 3P<2>,16900,40,,,,,,,,,,,
76,Os LXIX,Os,LXIX,68,Osmium,O,1s2.2s2.2p4,2p4,3P<2>,"2p2<1/2>.2p<3/2> (0,3/2)*<3/2>",17270,50,,,,,,,,,,,
76,Os LXX,Os,LXX,69,Osmium,N,1s2.2s2.2p3,2p2<1/2>.2p<3/2>,"(0,3/2)*<3/2>",2p2 3P<0>,17620,50,,,,,,,,,,,
76,Os LXXI,Os,LXXI,70,Osmium,C,1s2.2s2.2p2,2p2,3P0,2p 2P*<1/2>,19600,60,,,,,,,,,,,
76,Os LXXII,Os,LXXII,71,Osmium,B,1s2.2s2.2p,2p,2P*<1/2>,2s2 1S<0>,20030,60,,,,,,,,,,,
76,Os LXXIII,Os,LXXIII,72,Osmium,Be,1s2.2s2,2s2,1S0,2s 2S<1/2>,20570,70,,,,,,,,,,,
76,Os LXXIV,Os,LXXIV,73,Osmium,Li,1s2.2s,1s2.2s,2S<1/2>,1s2 1S<0>,20920.6,0.22,,,,,,,,,,,
76,Os LXXV,Os,LXXV,74,Osmium,He,1s2,1s2,1S0,1s 2S<1/2>,83976.18,0.22,,,,,,,,,,,
76,Os LXXVI,Os,LXXVI,75,Osmium,H,1s,1s,2S<1/2>,,85614.42,0.15,,,,,,,,,,,
77,Ir I,Ir,I,0,Iridium,Ir,[Xe].4f14.5d7.6s2,5d7.6s2,4F<9/2>,5d7.6s 5F<5>,8.96702,0.00022,,,,,,,,,,,
77,Ir II,Ir,II,1,Iridium,Os,[Xe].4f14.5d7.6s,5d7.(4F).6s,5F<5>,5d7 4F<9/2>,17,0.3,,,,,,,,,,,
77,Ir III,Ir,III,2,Iridium,Re,[Xe].4f14.5d7,5d7,4F<9/2>,5d6 5D<4>,28,1.6,,,,,,,,,,,
77,Ir IV,Ir,IV,3,Iridium,W,[Xe].4f14.5d6,5d6,5D<4>,5d5 6S<5/2>,40,1.7,,,,,,,,,,,
77,Ir V,Ir,V,4,Iridium,Ta,[Xe].4f14.5d5,5d5,6S<5/2>,5d4 5D<0>,57,1.9,,,,,,,,,,,
77,Ir VI,Ir,VI,5,Iridium,Hf,[Xe].4f14.5d4,5d4,5D0,5d3 4F<3/2>,72,2,,,,,,,,,,,
77,Ir VII,Ir,VII,6,Iridium,Lu,[Xe].4f14.5d3,5d3,4F<3/2>,5d2 3F<2>,89,2,,,,,,,,,,,
77,Ir VIII,Ir,VIII,7,Iridium,Yb,[Xe].4f14.5d2,5d2,3F<2>,5d 2D<3/2>,105,2.1,,,,,,,,,,,
77,Ir IX,Ir,IX,8,Iridium,Tm,[Xe].4f14.5d,5d,2D<3/2>,4f14 1S<0>,122.7,0.9,,,,,,,,,,,
77,Ir X,Ir,X,9,Iridium,Er,[Xe].4f14,4f14,1S0,4f14.5p5 2P*<3/2>,194.8,0.6,,,,,,,,,,,
77,Ir XI,Ir,XI,10,Iridium,Ho,[Cd].4f14.5p5,4f14.5p5,2P*<3/2>,4f14.5p4 3P<2>,217,11,,,,,,,,,,,
77,Ir XII,Ir,XII,11,Iridium,Dy,[Cd].4f14.5p4,4f14.5p4,3P<2>,4f14.5p3 2P*<3/2>,240,12,,,,,,,,,,,
77,Ir XIII,Ir,XIII,12,Iridium,Tb,[Cd].4f14.5p3,4f14.5p3,2P*<3/2>,4f14.5p2 3P<0>,264,14,,,,,,,,,,,
77,Ir XIV,Ir,XIV,13,Iridium,Gd,[Cd].4f14.5p2,4f14.5p2,3P0,4f14.5p 2P*<1/2>,303,15,,,,,,,,,,,
77,Ir XV,Ir,XV,14,Iridium,Eu,[Cd].4f14.5p,4f14.5p,2P*<1/2>,4f14 1S<0>,329,16,,,,,,,,,,,
77,Ir XVI,Ir,XVI,15,Iridium,Sm,[Cd].4f14,4f14,1S0,4f13.5s2 2F*<7/2>,356,17,,,,,,,,,,,
77,Ir XVII,Ir,XVII,16,Iridium,Pm,[Cd].4f13,4f13.5s2,2F*<7/2>,4f12.5s2 3H<6>,407,20,,,,,,,,,,,
77,Ir XVIII,Ir,XVIII,17,Iridium,Nd,[Cd].4f12,4f12.5s2,3H<6>,4f12.5s,445,22,,,,,,,,,,,
77,Ir XIX,Ir,XIX,18,Iridium,Pr,[Kr].4d10.4f12.5s,4f12.5s,,4f12,472,24,,,,,,,,,,,
77,Ir XX,Ir,XX,19,Iridium,Ce,[Kr].4d10.4f12,4f12,,4f11 4I*<15/2>,510,30,,,,,,,,,,,
77,Ir XXI,Ir,XXI,20,Iridium,La,[Kr].4d10.4f11,4f11,4I*<15/2>,4f10 5I<8>,560,30,,,,,,,,,,,
77,Ir XXII,Ir,XXII,21,Iridium,Ba,[Kr].4d10.4f10,4f10,5I<8>,4f9 6H*<15/2>,610,30,,,,,,,,,,,
77,Ir XXIII,Ir,XXIII,22,Iridium,Cs,[Kr].4d10.4f9,4f9,6H*<15/2>,4f8 7F<6>,670,30,,,,,,,,,,,
77,Ir XXIV,Ir,XXIV,23,Iridium,Xe,[Kr].4d10.4f8,4f8,7F<6>,4f7 8S*<7/2>,720,40,,,,,,,,,,,
77,Ir XXV,Ir,XXV,24,Iridium,I,[Kr].4d10.4f7,4f7,8S*<7/2>,4f6 7F<0>,770,40,,,,,,,,,,,
77,Ir XXVI,Ir,XXVI,25,Iridium,Te,[Kr].4d10.4f6,4f6,7F0,4f5 6H*<5/2>,820,40,,,,,,,,,,,
77,Ir XXVII,Ir,XXVII,26,Iridium,Sb,[Kr].4d10.4f5,4f5,6H*<5/2>,4f4 5I<4>,870,40,,,,,,,,,,,
77,Ir XXVIII,Ir,XXVIII,27,Iridium,Sn,[Kr].4d10.4f4,4f4,5I<4>,4f3 4I*<9/2>,920,50,,,,,,,,,,,
77,Ir XXIX,Ir,XXIX,28,Iridium,In,[Kr].4d10.4f3,4f3,4I*<9/2>,4f2 3H<4>,980,50,,,,,,,,,,,
77,Ir XXX,Ir,XXX,29,Iridium,Cd,[Kr].4d10.4f2,4f2,3H<4>,4f 2F*<5/2>,1030,50,,,,,,,,,,,
77,Ir XXXI,Ir,XXXI,30,Iridium,Ag,[Kr].4d10.4f,4f,2F*<5/2>,4d10 1S<0>,1080,50,,,,,,,,,,,
77,Ir XXXII,Ir,XXXII,31,Iridium,Pd,[Kr].4d10,4d10,1S0,4d9 2D<5/2>,1331,4,,,,,,,,,,,
77,Ir XXXIII,Ir,XXXIII,32,Iridium,Rh,[Kr].4d9,4d9,2D<5/2>,4d8 3F<4>,1381,4,,,,,,,,,,,
77,Ir XXXIV,Ir,XXXIV,33,Iridium,Ru,[Kr].4d8,4d8,3F<4>,4d7 4F<9/2>,1436,5,,,,,,,,,,,
77,Ir XXXV,Ir,XXXV,34,Iridium,Tc,[Kr].4d7,4d7,4F<9/2>,4d6 5D<4>,1493,5,,,,,,,,,,,
77,Ir XXXVI,Ir,XXXVI,35,Iridium,Mo,[Kr].4d6,4d6,5D<4>,"4d-4.4d+ (0,5/2)<5/2>",1548,5,,,,,,,,,,,
77,Ir XXXVII,Ir,XXXVII,36,Iridium,Nb,[Kr].4d5,4d-4.4d+,"(0,5/2)<5/2>",4d4 5D<0>,1603,5,,,,,,,,,,,
77,Ir XXXVIII,Ir,XXXVIII,37,Iridium,Zr,[Kr].4d4,4d4,5D0,4d3 4F<3/2>,1684,4,,,,,,,,,,,
77,Ir XXXIX,Ir,XXXIX,38,Iridium,Y,[Kr].4d3,4d3,4F<3/2>,4d2 3F<2>,1739,4,,,,,,,,,,,