At. num,Sp. Name,Element,Valence,Ion Charge,El. Name,Isoel. Seq.,Ground Shells (a),Ground Config.,Ground Level,Ionized Level,Ionization Energy (b) (eV),Uncertainty (c) (eV),,,,,,,,,,,
52,Te XLVIII,Te,XLVIII,47,Tellurium,B,1s2.2s2.2p,2p,2P*<1/2>,2s2 1S<0>,8499,4,,,,,,,,,,,
52,Te XLIX,Te,XLIX,48,Tellurium,Be,1s2.2s2,2s2,1S0,2s 2S<1/2>,8821,4,,,,,,,,,,,
52,Te L,Te,L,49,Tellurium,Li,1s2.2s,1s2.2s,2S<1/2>,1s2 1S<0>,9040.83,0.04,,,,,,,,,,,
52,Te LI,Te,LI,50,Tellurium,He,1s2,1s2,1S0,1s 2S<1/2>,37196.52,0.03,,,,,,,,,,,
52,Te LII,Te,LII,51,Tellurium,H,1s,1s,2S<1/2>,,38177.74,0.015,,,,,,,,,,,
53,I I,I,I,0,Iodine,I,[Cd].5p5,5s2.5p5,2P*<3/2>,5s2.5p4 3P<2>,10.451236,0.000025,,,,,,,,,,,
53,I II,I,II,1,Iodine,Te,[Cd].5p4,5s2.5p4,3P<2>,5s2.5p3 4S<3/2>,19.13126,0.00012,,,,,,,,,,,
53,I III,I,III,2,Iodine,Sb,[Cd].5p3,5s2.5p3,4S*<3/2>,5s2.5p2 3P<0>,29.57,0.025,,,,,,,,,,,
53,I IV,I,IV,3,Iodine,Sn,[Cd].5p2,5s2.5p2,3P0,5s2.5p 2P<1/2>,40.357,0.025,,,,,,,,,,,
53,I V,I,V,4,Iodine,In,[Cd].5p,5s2.5p,2P*<1/2>,5s2 1S<0>,51.52,0.04,,,,,,,,,,,
53,I VI,I,VI,5,Iodine,Cd,[Kr].4d10.5s2,5s2,1S0,5s 2S<1/2>,74.4,0.4,,,,,,,,,,,
53,I VII,I,VII,6,Iodine,Ag,[Kr].4d10.5s,4d10.5s,2S<1/2>,4d10 1S<0>,87.61,0.06,,,,,,,,,,,
53,I VIII,I,VIII,7,Iodine,Pd,[Kr].4d10,4d10,1S0,4d9 2D<5/2>,150.81,0.1,,,,,,,,,,,
53,I IX,I,IX,8,Iodine,Rh,[Kr].4d9,4d9,2D<5/2>,4d8 3F<4>,171,2.2,,,,,,,,,,,
53,I X,I,X,9,Iodine,Ru,[Kr].4d8,4d8,3F<4>,4d7 4F<9/2>,197,2.2,,,,,,,,,,,
53,I XI,I,XI,10,Iodine,Tc,[Kr].4d7,4d7,4F<9/2>,4d6 5D<4>,220.9,2.4,,,,,,,,,,,
53,I XII,I,XII,11,Iodine,Mo,[Kr].4d6,4d6,5D<4>,4d5 6S<5/2>,247,2.5,,,,,,,,,,,
53,I XIII,I,XIII,12,Iodine,Nb,[Kr].4d5,4d5,6S<5/2>,4d4 5D<0>,279,3,,,,,,,,,,,
53,I XIV,I,XIV,13,Iodine,Zr,[Kr].4d4,4d4,5D0,4d3 4F<3/2>,307,3,,,,,,,,,,,
53,I XV,I,XV,14,Iodine,Y,[Kr].4d3,4d3,4F<3/2>,4d2 3F<2>,335,3,,,,,,,,,,,
53,I XVI,I,XVI,15,Iodine,Sr,[Kr].4d2,4d2,3F<2>,4d 2D<3/2>,365,3,,,,,,,,,,,
53,I XVII,I,XVII,16,Iodine,Rb,[Kr].4d,4d,2D<3/2>,4p6 1S<0>,393,3,,,,,,,,,,,
53,I XVIII,I,XVIII,17,Iodine,Kr,[Ar].3d10.4s2.4p6,4p6,1S0,4p5 2P*<3/2>,505,3,,,,,,,,,,,
53,I XIX,I,XIX,18,Iodine,Br,[Ar].3d10.4s2.4p5,4p5,2P*<3/2>,4p4 3P<2>,535,3,,,,,,,,,,,
53,I XX,I,XX,19,Iodine,Se,[Ar].3d10.4s2.4p4,4p4,3P<2>,4p3 4S*<3/2>,569,4,,,,,,,,,,,
53,I XXI,I,XXI,20,Iodine,As,[Ar].3d10.4s2.4p3,4p3,4S*<3/2>,4p2 3P<0>,601,4,,,,,,,,,,,
53,I XXII,I,XXII,21,Iodine,Ge,[Ar].3d10.4s2.4p2,4p2,3P0,4p 2P*<1/2>,649,4,,,,,,,,,,,
53,I XXIII,I,XXIII,22,Iodine,Ga,[Ar].3d10.4s2.4p,4p,2P*<1/2>,4s2 1S<0>,683,4,,,,,,,,,,,
53,I XXIV,I,XXIV,23,Iodine,Zn,[Ar].3d10.4s2,4s2,1S0,4s 2S<1/2>,762,4,,,,,,,,,,,
53,I XXV,I,XXV,24,Iodine,Cu,[Ar].3d10.4s,4s,2S<1/2>,3d10 1S<0>,800.8,0.4,,,,,,,,,,,
53,I XXVI,I,XXVI,25,Iodine,Ni,[Ar].3d10,3d10,1S0,3d9 2D<5/2>,1397,4,,,,,,,,,,,
53,I XXVII,I,XXVII,26,Iodine,Co,[Ar].3d9,3d9,2D<5/2>,3d8 3F<4>,1472,4,,,,,,,,,,,
53,I XXVIII,I,XXVIII,27,Iodine,Fe,[Ar].3d8,3d8,3F<4>,3d7 4F<9/2>,1553,4,,,,,,,,,,,
53,I XXIX,I,XXIX,28,Iodine,Mn,[Ar].3d7,3d7,4F<9/2>,3d6 5D<4>,1639,4,,,,,,,,,,,
53,I XXX,I,XXX,29,Iodine,Cr,[Ar].3d6,3d6,5D<4>,3d5 6S<5/2>,1720,4,,,,,,,,,,,
53,I XXXI,I,XXXI,30,Iodine,V,[Ar].3d5,3d5,6S<5/2>,3d4 5D<0>,1812,4,,,,,,,,,,,
53,I XXXII,I,XXXII,31,Iodine,Ti,[Ar].3d4,3d4,5D0,3d3 4F<3/2>,1911,4,,,,,,,,,,,
53,I XXXIII,I,XXXIII,32,Iodine,Sc,[Ar].3d3,3d3,4F<3/2>,3d2 3F<2>,1999,4,,,,,,,,,,,
53,I XXXIV,I,XXXIV,33,Iodine,Ca,[Ar].3d2,3d2,3F<2>,3d 2D<3/2>,2093,5,,,,,,,,,,,
53,I XXXV,I,XXXV,34,Iodine,K,[Ar].3d,3d,2D<3/2>,3p6 1S<0>,2181,5,,,,,,,,,,,
53,I XXXVI,I,XXXVI,35,Iodine,Ar,[Ne].3s2.3p6,3p6,1S0,3p5 2P*<3/2>,2431,5,,,,,,,,,,,
53,I XXXVII,I,XXXVII,36,Iodine,Cl,[Ne].3s2.3p5,3p5,2P*<3/2>,3p4 3P<2>,2510,5,,,,,,,,,,,
53,I XXXVIII,I,XXXVIII,37,Iodine,S,[Ne].3s2.3p4,3p4,3P<2>,3p3 4S*<3/2>,2598,4,,,,,,,,,,,
53,I XXXIX,I,XXXIX,38,Iodine,P,[Ne].3s2.3p3,3p3,4S*<3/2>,3p2 3P<0>,2680,4,,,,,,,,,,,
53,I XL,I,XL,39,Iodine,Si,[Ne].3s2.3p2,3p2,3P0,3p 2P*<1/2>,2836,4,,,,,,,,,,,
53,I XLI,I,XLI,40,Iodine,Al,[Ne].3s2.3p,3p,2P*<1/2>,3s2 1S<0>,2926,4,,,,,,,,,,,
53,I XLII,I,XLII,41,Iodine,Mg,[Ne].3s2,3s2,1S0,3s 2S<1/2>,3096,4,,,,,,,,,,,
53,I XLIII,I,XLIII,42,Iodine,Na,[Ne].3s,3s,2S<1/2>,2p6 1S<0>,3185.5,0.5,,,,,,,,,,,
53,I XLIV,I,XLIV,43,Iodine,Ne,1s2.2s2.2p6,2p6,1S0,2p5 2P*<3/2>,7337,4,,,,,,,,,,,
53,I XLV,I,XLV,44,Iodine,F,1s2.2s2.2p5,2p5,2P*<3/2>,2p4 3P<2>,7563,4,,,,,,,,,,,
53,I XLVI,I,XLVI,45,Iodine,O,1s2.2s2.2p4,2p4,3P<2>,"2p2<1/2>.2p<3/2> (0,3/2)*<3/2>",7811,4,,,,,,,,,,,
53,I XLVII,I,XLVII,46,Iodine,N,1s2.2s2.2p3,2p2<1/2>.2p<3/2>,"(0,3/2)*<3/2>",2p2 3P<0>,8044,4,,,,,,,,,,,
53,I XLVIII,I,XLVIII,47,Iodine,C,1s2.2s2.2p2,2p2,3P0,2p 2P*<1/2>,8601,4,,,,,,,,,,,
53,I XLIX,I,XLIX,48,Iodine,B,1s2.2s2.2p,2p,2P*<1/2>,2s2 1S<0>,8867,4,,,,,,,,,,,
53,I L,I,L,49,Iodine,Be,1s2.2s2,2s2,1S0,2s 2S<1/2>,9196,4,,,,,,,,,,,
53,I LI,I,LI,50,Iodine,Li,1s2.2s,1s2.2s,2S<1/2>,1s2 1S<0>,9421.1,0.04,,,,,,,,,,,
53,I LII,I,LII,51,Iodine,He,1s2,1s2,1S0,1s 2S<1/2>,38717,0.03,,,,,,,,,,,
53,I LIII,I,LIII,52,Iodine,H,1s,1s,2S<1/2>,,39721.549,0.017,,,,,,,,,,,
54,Xe I,Xe,I,0,Xenon,Xe,[Cd].5p6,5p6,1S0,5s2.5p5 2P*<3/2>,12.1298437,0.0000015,,,,,,,,,,,
54,Xe II,Xe,II,1,Xenon,I,[Cd].5p5,5s2.5p5,2P*<3/2>,5s2.5p4 3P<2>,20.975,0.004,,,,,,,,,,,
54,Xe III,Xe,III,2,Xenon,Te,[Cd].5p4,5s2.5p4,3P<2>,5s2.5p3 4S<3/2>,31.05,0.04,,,,,,,,,,,
54,Xe IV,Xe,IV,3,Xenon,Sb,[Cd].5p3,5s2.5p3,4S*<3/2>,5s2.5p2 3P<0>,42.2,0.2,,,,,,,,,,,
54,Xe V,Xe,V,4,Xenon,Sn,[Cd].5p2,5s2.5p2,3P0,5s2.5p 2P<1/2>,54.1,0.5,,,,,,,,,,,
54,Xe VI,Xe,VI,5,Xenon,In,[Cd].5p,5s2.5p,2P*<1/2>,5s2 1S<0>,66.703,0.007,,,,,,,,,,,
54,Xe VII,Xe,VII,6,Xenon,Cd,[Kr].4d10.5s2,5s2,1S0,5s 2S<1/2>,91.6,0.5,,,,,,,,,,,
54,Xe VIII,Xe,VIII,7,Xenon,Ag,[Kr].4d10.5s,5s,2S<1/2>,4d10 1S<0>,105.9778,0.0025,,,,,,,,,,,
54,Xe IX,Xe,IX,8,Xenon,Pd,[Kr].4d10,4d10,1S0,4d9 2D<5/2>,179.84,0.12,,,,,,,,,,,
54,Xe X,Xe,X,9,Xenon,Rh,[Kr].4d9,4d9,2D<5/2>,4d8 3F<4>,202,2.2,,,,,,,,,,,
54,Xe XI,Xe,XI,10,Xenon,Ru,[Kr].4d8,4p6.4d8,3F<4>,4d7 4F<9/2>,229.02,0.2,,,,,,,,,,,
54,Xe XII,Xe,XII,11,Xenon,Tc,[Kr].4d7,4d7,4F<9/2>,4d6 5D<4>,255,2.5,,,,,,,,,,,
54,Xe XIII,Xe,XIII,12,Xenon,Mo,[Kr].4d6,4d6,5D<4>,4d5 6S<5/2>,281,3,,,,,,,,,,,
54,Xe XIV,Xe,XIV,13,Xenon,Nb,[Kr].4d5,4d5,6S<5/2>,4d4 5D<0>,314,3,,,,,,,,,,,
54,Xe XV,Xe,XV,14,Xenon,Zr,[Kr].4d4,4d4,5D0,4d3 4F<3/2>,343,3,,,,,,,,,,,
54,Xe XVI,Xe,XVI,15,Xenon,Y,[Kr].4d3,4d3,4F<3/2>,4d2 3F<2>,374,3,,,,,,,,,,,
54,Xe XVII,Xe,XVII,16,Xenon,Sr,[Kr].4d2,4d2,3F<2>,4d 2D<3/2>,404,3,,,,,,,,,,,
54,Xe XVIII,Xe,XVIII,17,Xenon,Rb,[Kr].4d,4d,2D<3/2>,4p6 1S<0>,434,3,,,,,,,,,,,
54,Xe XIX,Xe,XIX,18,Xenon,Kr,[Ar].3d10.4s2.4p6,4p6,1S0,4p5 2P*<3/2>,549,3,,,,,,,,,,,
54,Xe XX,Xe,XX,19,Xenon,Br,[Ar].3d10.4s2.4p5,4p5,2P*<3/2>,4p4 3P<2>,582,4,,,,,,,,,,,
54,Xe XXI,Xe,XXI,20,Xenon,Se,[Ar].3d10.4s2.4p4,4p4,3P<2>,4p3 4S*<3/2>,616,4,,,,,,,,,,,
54,Xe XXII,Xe,XXII,21,Xenon,As,[Ar].3d10.4s2.4p3,4p3,4S*<3/2>,4p2 3P<0>,650,4,,,,,,,,,,,
54,Xe XXIII,Xe,XXIII,22,Xenon,Ge,[Ar].3d10.4s2.4p2,4p2,3P0,4p 2P*<1/2>,700,4,,,,,,,,,,,
54,Xe XXIV,Xe,XXIV,23,Xenon,Ga,[Ar].3d10.4s2.4p,4p,2P*<1/2>,4s2 1S<0>,736,4,,,,,,,,,,,
54,Xe XXV,Xe,XXV,24,Xenon,Zn,[Ar].3d10.4s2,4s2,1S0,4s 2S<1/2>,818,4,,,,,,,,,,,
54,Xe XXVI,Xe,XXVI,25,Xenon,Cu,[Ar].3d10.4s,3d10.4s,2S<1/2>,3d10 1S<0>,857,0.4,,,,,,,,,,,
54,Xe XXVII,Xe,XXVII,26,Xenon,Ni,[Ar].3d10,3p6.3d10,1S0,3d9 2D<5/2>,1493,4,,,,,,,,,,,
54,Xe XXVIII,Xe,XXVIII,27,Xenon,Co,[Ar].3d9,3p6.3d9,2D<5/2>,3d8 3F<4>,1571,4,,,,,,,,,,,
54,Xe XXIX,Xe,XXIX,28,Xenon,Fe,[Ar].3d8,3p6.3d4<3/2>.3d4<5/2>,"(0,4)<4>",3d7 4F<9/2>,1653,4,,,,,,,,,,,
54,Xe XXX,Xe,XXX,29,Xenon,Mn,[Ar].3d7,3d7,4F<9/2>,3d6 5D<4>,1742,4,,,,,,,,,,,
54,Xe XXXI,Xe,XXXI,30,Xenon,Cr,[Ar].3d6,3d6,5D<4>,3d5 6S<5/2>,1826,4,,,,,,,,,,,
54,Xe XXXII,Xe,XXXII,31,Xenon,V,[Ar].3d5,3d5,6S<5/2>,3d4 5D<0>,1919,4,,,,,,,,,,,
54,Xe XXXIII,Xe,XXXIII,32,Xenon,Ti,[Ar].3d4,3d4,5D0,3d3 4F<3/2>,2023,4,,,,,,,,,,,
54,Xe XXXIV,Xe,XXXIV,33,Xenon,Sc,[Ar].3d3,3d3,4F<3/2>,3d2 3F<2>,2113,5,,,,,,,,,,,
54,Xe XXXV,Xe,XXXV,34,Xenon,Ca,[Ar].3d2,3d2,3F<2>,3d 2D<3/2>,2209,5,,,,,,,,,,,
54,Xe XXXVI,Xe,XXXVI,35,Xenon,K,[Ar].3d,3d,2D<3/2>,3p6 1S<0>,2300,5,,,,,,,,,,,
54,Xe XXXVII,Xe,XXXVII,36,Xenon,Ar,[Ne].3s2.3p6,3p6,1S0,3p5 2P*<3/2>,2556,5,,,,,,,,,,,
54,Xe XXXVIII,Xe,XXXVIII,37,Xenon,Cl,[Ne].3s2.3p5,3p5,2P*<3/2>,3p4 3P<2>,2637,4,,,,,,,,,,,
54,Xe XXXIX,Xe,XXXIX,38,Xenon,S,[Ne].3s2.3p4,3p4,3P<2>,3p3 4S*<3/2>,2726,4,,,,,,,,,,,
54,Xe XL,Xe,XL,39,Xenon,P,[Ne].3s2.3p3,3p3,4S*<3/2>,3p2 3P<0>,2811,4,,,,,,,,,,,
54,Xe XLI,Xe,XLI,40,Xenon,Si,[Ne].3s2.3p2,3p2,3P0,3p 2P*<1/2>,2975,4,,,,,,,,,,,
54,Xe XLII,Xe,XLII,41,Xenon,Al,[Ne].3s2.3p,3p,2P*<1/2>,3s2 1S<0>,3068,4,,,,,,,,,,,
54,Xe XLIII,Xe,XLIII,42,Xenon,Mg,[Ne].3s2,3s2,1S0,3s 2S<1/2>,3243,4,,,,,,,,,,,
54,Xe XLIV,Xe,XLIV,43,Xenon,Na,[Ne].3s,3s,2S<1/2>,2p6 1S<0>,3333.8,0.5,,,,,,,,,,,
54,Xe XLV,Xe,XLV,44,Xenon,Ne,1s2.2s2.2p6,2p6,1S0,2p5 2P*<3/2>,7660,4,,,,,,,,,,,
54,Xe XLVI,Xe,XLVI,45,Xenon,F,1s2.2s2.2p5,2p5,2P*<3/2>,2p4 3P<2>,7889,4,,,,,,,,,,,
54,Xe XLVII,Xe,XLVII,46,Xenon,O,1s2.2s2.2p4,2p4,3P<2>,"2p2<1/2>.2p<3/2> (0,3/2)*<3/2>",8144,4,,,,,,,,,,,
54,Xe XLVIII,Xe,XLVIII,47,Xenon,N,1s2.2s2.2p3,2p2<1/2>.2p<3/2>,"(0,3/2)*<3/2>",2p2 3P<0>,8382,4,,,,,,,,,,,
54,Xe XLIX,Xe,XLIX,48,Xenon,C,1s2.2s2.2p2,2p2,3P0,2p 2P*<1/2>,8971,4,,,,,,,,,,,
54,Xe L,Xe,L,49,Xenon,B,1s2.2s2.2p,2p,2P*<1/2>,2s2 1S<0>,9243,4,,,,,,,,,,,
54,Xe LI,Xe,LI,50,Xenon,Be,1s2.2s2,2s2,1S0,2s 2S<1/2>,9581,4,,,,,,,,,,,
54,Xe LII,Xe,LII,51,Xenon,Li,1s2.2s,1s2.2s,2S<1/2>,1s2 1S<0>,9810.37,0.04,,,,,,,,,,,
54,Xe LIII,Xe,LIII,52,Xenon,He,1s2,1s2,1S0,1s 2S<1/2>,40271.73,0.03,,,,,,,,,,,
54,Xe LIV,Xe,LIV,53,Xenon,H,1s,1s,2S<1/2>,,41299.892,0.019,,,,,,,,,,,
55,Cs I,Cs,I,0,Cesium,Cs,[Xe].6s,5p6.6s,2S<1/2>,5s2.5p6 1S<0>,3.893905727,1.70E-10,,,,,,,,,,,
55,Cs II,Cs,II,1,Cesium,Xe,[Cd].5p6,5p6,1S0,5s2.5p5 2P*<3/2>,23.15745,0.00006,,,,,,,,,,,
55,Cs III,Cs,III,2,Cesium,I,[Cd].5p5,5s2.5p5,2P*<3/2>,5s2.5p4 3P<2>,33.195,0.004,,,,,,,,,,,
55,Cs IV,Cs,IV,3,Cesium,Te,[Cd].5p4,5s2.5p4,3P<2>,5s2.5p3 4S*<3/2>,43,1.7,,,,,,,,,,,
55,Cs V,Cs,V,4,Cesium,Sb,[Cd].5p3,5s2.5p3,4S*<3/2>,5s2.5p2 3P<0>,56,1.9,,,,,,,,,,,
55,Cs VI,Cs,VI,5,Cesium,Sn,[Cd].5p2,5s2.5p2,3P0,5s2.5p 2P*<1/2>,69.1,2,,,,,,,,,,,
55,Cs VII,Cs,VII,6,Cesium,In,[Cd].5p,5s2.5p,2P*<1/2>,5s2 1S<0>,82.9,2,,,,,,,,,,,
55,Cs VIII,Cs,VIII,7,Cesium,Cd,[Kr].4d10.5s2,5s2,1S0,5s 2S<1/2>,110.1,0.6,,,,,,,,,,,
55,Cs IX,Cs,IX,8,Cesium,Ag,[Kr].4d10.5s,4d10.5s,2S<1/2>,4d10 1S<0>,125.61,0.09,,,,,,,,,,,
55,Cs X,Cs,X,9,Cesium,Pd,[Kr].4d10,4d10,1S0,4d9 2D<5/2>,213.3,2.5,,,,,,,,,,,
55,Cs XI,Cs,XI,10,Cesium,Rh,[Kr].4d9,4d9,2D<5/2>,4d8 3F<4>,233,2.4,,,,,,,,,,,
55,Cs XII,Cs,XII,11,Cesium,Ru,[Kr].4d8,4d8,3F<4>,4d7 4F<9/2>,261,2.5,,,,,,,,,,,
55,Cs XIII,Cs,XIII,12,Cesium,Tc,[Kr].4d7,4d7,4F<9/2>,4d6 5D<4>,289,3,,,,,,,,,,,
55,Cs XIV,Cs,XIV,13,Cesium,Mo,[Kr].4d6,4d6,5D<4>,4d5 6S<5/2>,316,3,,,,,,,,,,,
55,Cs XV,Cs,XV,14,Cesium,Nb,[Kr].4d5,4d5,6S<5/2>,4d4 5D<0>,352,3,,,,,,,,,,,
55,Cs XVI,Cs,XVI,15,Cesium,Zr,[Kr].4d4,4d4,5D0,4d3 4F<3/2>,382,3,,,,,,,,,,,
55,Cs XVII,Cs,XVII,16,Cesium,Y,[Kr].4d3,4d3,4F<3/2>,4d2 3F<2>,413,3,,,,,,,,,,,
55,Cs XVIII,Cs,XVIII,17,Cesium,Sr,[Kr].4d2,4d2,3F<2>,4d 2D<3/2>,445,3,,,,,,,,,,,
55,Cs XIX,Cs,XIX,18,Cesium,Rb,[Kr].4d,4p6.4d,2D<3/2>,4p6 1S<0>,476,3,,,,,,,,,,,
55,Cs XX,Cs,XX,19,Cesium,Kr,[Ar].3d10.4s2.4p6,4p6,1S0,4p5 2P*<3/2>,597,4,,,,,,,,,,,
55,Cs XXI,Cs,XXI,20,Cesium,Br,[Ar].3d10.4s2.4p5,4p5,2P*<3/2>,4p4 3P<2>,629,4,,,,,,,,,,,
55,Cs XXII,Cs,XXII,21,Cesium,Se,[Ar].3d10.4s2.4p4,4p4,3P<2>,4p3 4S*<3/2>,666,4,,,,,,,,,,,
55,Cs XXIII,Cs,XXIII,22,Cesium,As,[Ar].3d10.4s2.4p3,4p3,4S*<3/2>,4p2 3P<0>,700,4,,,,,,,,,,,
55,Cs XXIV,Cs,XXIV,23,Cesium,Ge,[Ar].3d10.4s2.4p2,4p2,3P0,4p 2P*<1/2>,753,4,,,,,,,,,,,
55,Cs XXV,Cs,XXV,24,Cesium,Ga,[Ar].3d10.4s2.4p,4p,2P*<1/2>,4s2 1S<0>,791,4,,,,,,,,,,,
55,Cs XXVI,Cs,XXVI,25,Cesium,Zn,[Ar].3d10.4s2,4s2,1S0,4s 2S<1/2>,875,4,,,,,,,,,,,
55,Cs XXVII,Cs,XXVII,26,Cesium,Cu,[Ar].3d10.4s,4s,2S<1/2>,3d10 1S<0>,916.1,0.5,,,,,,,,,,,
55,Cs XXVIII,Cs,XXVIII,27,Cesium,Ni,[Ar].3d10,3p6.3d10,1S0,3d9 2D<5/2>,1592,4,,,,,,,,,,,
55,Cs XXIX,Cs,XXIX,28,Cesium,Co,[Ar].3d9,3p6.3d9,2D<5/2>,3d8 3F<4>,1672,4,,,,,,,,,,,
55,Cs XXX,Cs,XXX,29,Cesium,Fe,[Ar].3d8,3p6.3d4<3/2>.3d4<5/2>,"(0,4)<4>",3d7 4F<9/2>,1757,4,,,,,,,,,,,
55,Cs XXXI,Cs,XXXI,30,Cesium,Mn,[Ar].3d7,3d7,4F<9/2>,3d6 5D<4>,1848,4,,,,,,,,,,,
55,Cs XXXII,Cs,XXXII,31,Cesium,Cr,[Ar].3d6,3d6,5D<4>,3d5 6S<5/2>,1936,4,,,,,,,,,,,
55,Cs XXXIII,Cs,XXXIII,32,Cesium,V,[Ar].3d5,3d5,6S<5/2>,3d4 5D<0>,2029,4,,,,,,,,,,,
55,Cs XXXIV,Cs,XXXIV,33,Cesium,Ti,[Ar].3d4,3d4,5D0,3d3 4F<3/2>,2137,5,,,,,,,,,,,
55,Cs XXXV,Cs,XXXV,34,Cesium,Sc,[Ar].3d3,3d3,4F<3/2>,3d2 3F<2>,2230,5,,,,,,,,,,,
55,Cs XXXVI,Cs,XXXVI,35,Cesium,Ca,[Ar].3d2,3d2,3F<2>,3d 2D<3/2>,2329,5,,,,,,,,,,,
55,Cs XXXVII,Cs,XXXVII,36,Cesium,K,[Ar].3d,3d,2D<3/2>,3p6 1S<0>,2422,5,,,,,,,,,,,
55,Cs XXXVIII,Cs,XXXVIII,37,Cesium,Ar,[Ne].3s2.3p6,3p6,1S0,3p5 2P*<3/2>,2683,4,,,,,,,,,,,
55,Cs XXXIX,Cs,XXXIX,38,Cesium,Cl,[Ne].3s2.3p5,3s2.3p5,2P*<3/2>,3p4 3P<2>,2767,4,,,,,,,,,,,
55,Cs XL,Cs,XL,39,Cesium,S,[Ne].3s2.3p4,3s2.3p4,3P<2>,3p3 4S*<3/2>,2859,4,,,,,,,,,,,
55,Cs XLI,Cs,XLI,40,Cesium,P,[Ne].3s2.3p3,3s2.3p3,4S*<3/2>,3p2 3P<0>,2945,4,,,,,,,,,,,
55,Cs XLII,Cs,XLII,41,Cesium,Si,[Ne].3s2.3p2,3s2.3p2,3P0,3p 2P*<1/2>,3118,4,,,,,,,,,,,
55,Cs XLIII,Cs,XLIII,42,Cesium,Al,[Ne].3s2.3p,3s2.3p,2P*<1/2>,3s2 1S<0>,3214,4,,,,,,,,,,,
55,Cs XLIV,Cs,XLIV,43,Cesium,Mg,[Ne].3s2,3s2,1S0,3s 2S<1/2>,3392,4,,,,,,,,,,,
55,Cs XLV,Cs,XLV,44,Cesium,Na,[Ne].3s,3s,2S<1/2>,2p6 1S<0>,3485,4,,,,,,,,,,,
55,Cs XLVI,Cs,XLVI,45,Cesium,Ne,1s2.2s2.2p6,2s2.2p6,1S0,2p5 2P*<3/2>,7989,4,,,,,,,,,,,
55,Cs XLVII,Cs,XLVII,46,Cesium,F,1s2.2s2.2p5,2s2.2p5,2P*<3/2>,2p4 3P<2>,8224,4,,,,,,,,,,,
55,Cs XLVIII,Cs,XLVIII,47,Cesium,O,1s2.2s2.2p4,2s2.(2p2<1/2>.2p2<3/2>),"(0,2)<2>","2p2<1/2>.2p<3/2> (0,3/2)*<3/2>",8484,4,,,,,,,,,,,
55,Cs XLIX,Cs,XLIX,48,Cesium,N,1s2.2s2.2p3,2s2.2p2<1/2>.2p<3/2>,"(0,3/2)*<3/2>",2p2 3P<0>,8726,4,,,,,,,,,,,
55,Cs L,Cs,L,49,Cesium,C,1s2.2s2.2p2,2p2,3P0,2p 2P*<1/2>,9350,4,,,,,,,,,,,
55,Cs LI,Cs,LI,50,Cesium,B,1s2.2s2.2p,2s2.2p,2P*<1/2>,2s2 1S<0>,9629,4,,,,,,,,,,,
55,Cs LII,Cs,LII,51,Cesium,Be,1s2.2s2,2s2,1S0,2s 2S<1/2>,9974,4,,,,,,,,,,,
55,Cs LIII,Cs,LIII,52,Cesium,Li,1s2.2s,1s2.2s,2S<1/2>,1s2 1S<0>,10208.78,0.05,,,,,,,,,,,
55,Cs LIV,Cs,LIV,53,Cesium,He,1s2,1s2,1S0,1s 2S<1/2>,41861.08,0.04,,,,,,,,,,,
55,Cs LV,Cs,LV,54,Cesium,H,1s,1s,2S<1/2>,,42913.144,0.02,,,,,,,,,,,
56,Ba I,Ba,I,0,Barium,Ba,[Xe].6s2,6s2,1S0,5s2.5p6.6s 2S<1/2>,5.2116646,0.0000012,,,,,,,,,,,
56,Ba II,Ba,II,1,Barium,Cs,[Xe].6s,6s,2S<1/2>,5s2.5p6 1S<0>,10.003826,0.000012,,,,,,,,,,,
56,Ba III,Ba,III,2,Barium,Xe,[Cd].5p6,5p6,1S0,5s2.5p5 2P*<3/2>,35.8438,0.0025,,,,,,,,,,,
56,Ba IV,Ba,IV,3,Barium,I,[Cd].5p5,5s2.5p5,2P*<3/2>,5s2.5p4 3P<2>,47,0.3,,,,,,,,,,,
56,Ba V,Ba,V,4,Barium,Te,[Cd].5p4,5s2.5p4,3P<2>,5s2.5p3 4S*<3/2>,58,1.9,,,,,,,,,,,
56,Ba VI,Ba,VI,5,Barium,Sb,[Cd].5p3,5s2.5p3,4S*<3/2>,5s2.5p2 3P<0>,71,2,,,,,,,,,,,
56,Ba VII,Ba,VII,6,Barium,Sn,[Cd].5p2,5s2.5p2,3P0,5s2.5p 2P*<1/2>,86,2,,,,,,,,,,,
56,Ba VIII,Ba,VIII,7,Barium,In,[Cd].5p,5s2.5p,2P*<1/2>,5s2 1S<0>,101,2.1,,,,,,,,,,,
56,Ba IX,Ba,IX,8,Barium,Cd,[Kr].4d10.5s2,5s2,1S0,5s 2S<1/2>,130.5,0.6,,,,,,,,,,,
56,Ba X,Ba,X,9,Barium,Ag,[Kr].4d10.5s,5s,2S<1/2>,4d10 1S<0>,146.52,0.12,,,,,,,,,,,
56,Ba XI,Ba,XI,10,Barium,Pd,[Kr].4d10,4d10,1S0,4d9 2D<5/2>,241,2.4,,,,,,,,,,,
56,Ba XII,Ba,XII,11,Barium,Rh,[Kr].4d9,4d9,2D<5/2>,4d8 3F<4>,267.1,2.5,,,,,,,,,,,
56,Ba XIII,Ba,XIII,12,Barium,Ru,[Kr].4d8,4d8,3F<4>,4d7 4F<9/2>,296,3,,,,,,,,,,,
56,Ba XIV,Ba,XIV,13,Barium,Tc,[Kr].4d7,4d7,4F<9/2>,4d6 5D<4>,325,3,,,,,,,,,,,
56,Ba XV,Ba,XV,14,Barium,Mo,[Kr].4d6,4d6,5D<4>,4d5 6S<5/2>,354,3,,,,,,,,,,,
56,Ba XVI,Ba,XVI,15,Barium,Nb,[Kr].4d5,4d5,6S<5/2>,4d4 5D<0>,390,3,,,,,,,,,,,
56,Ba XVII,Ba,XVII,16,Barium,Zr,[Kr].4d4,4d4,5D0,4d3 4F<3/2>,422,3,,,,,,,,,,,
56,Ba XVIII,Ba,XVIII,17,Barium,Y,[Kr].4d3,4d3,4F<3/2>,4d2 3F<2>,455,3,,,,,,,,,,,
56,Ba XIX,Ba,XIX,18,Barium,Sr,[Kr].4d2,4d2,3F<2>,4d 2D<3/2>,488,3,,,,,,,,,,,
56,Ba XX,Ba,XX,19,Barium,Rb,[Kr].4d,4p6.4d,2D<3/2>,4p6 1S<0>,520,4,,,,,,,,,,,
56,Ba XXI,Ba,XXI,20,Barium,Kr,[Ar].3d10.4s2.4p6,4p6,1S0,4p5 2P*<3/2>,646,4,,,,,,,,,,,
56,Ba XXII,Ba,XXII,21,Barium,Br,[Ar].3d10.4s2.4p5,4p5,2P*<3/2>,4p4 3P<2>,679,4,,,,,,,,,,,
56,Ba XXIII,Ba,XXIII,22,Barium,Se,[Ar].3d10.4s2.4p4,4p4,3P<2>,4p3 4S*<3/2>,717,4,,,,,,,,,,,
56,Ba XXIV,Ba,XXIV,23,Barium,As,[Ar].3d10.4s2.4p3,4p3,4S*<3/2>,4p2 3P<0>,752,4,,,,,,,,,,,
56,Ba XXV,Ba,XXV,24,Barium,Ge,[Ar].3d10.4s2.4p2,3d10.4s2.4p2,3P0,4p 2P*<1/2>,809,4,,,,,,,,,,,
56,Ba XXVI,Ba,XXVI,25,Barium,Ga,[Ar].3d10.4s2.4p,4s2.4p,2P*<1/2>,4s2 1S<0>,846,4,,,,,,,,,,,
56,Ba XXVII,Ba,XXVII,26,Barium,Zn,[Ar].3d10.4s2,4s2,1S0,4s 2S<1/2>,935,4,,,,,,,,,,,
56,Ba XXVIII,Ba,XXVIII,27,Barium,Cu,[Ar].3d10.4s,4s,2S<1/2>,3d10 1S<0>,976.62,0.11,,,,,,,,,,,
56,Ba XXIX,Ba,XXIX,28,Barium,Ni,[Ar].3d10,3d10,1S0,3d9 2D<5/2>,1695,4,,,,,,,,,,,
56,Ba XXX,Ba,XXX,29,Barium,Co,[Ar].3d9,3d9,2D<5/2>,3d8 3F<4>,1776,4,,,,,,,,,,,
56,Ba XXXI,Ba,XXXI,30,Barium,Fe,[Ar].3d8,3p6.3d4<3/2>.3d4<5/2>,"(0,4)<4>",3d7 4F<9/2>,1864,4,,,,,,,,,,,
56,Ba XXXII,Ba,XXXII,31,Barium,Mn,[Ar].3d7,3d7,4F<9/2>,3d6 5D<4>,1958,4,,,,,,,,,,,
56,Ba XXXIII,Ba,XXXIII,32,Barium,Cr,[Ar].3d6,3d6,5D<4>,3d5 6S<5/2>,2047,4,,,,,,,,,,,
56,Ba XXXIV,Ba,XXXIV,33,Barium,V,[Ar].3d5,3d5,6S<5/2>,3d4 5D<0>,2142,5,,,,,,,,,,,
56,Ba XXXV,Ba,XXXV,34,Barium,Ti,[Ar].3d4,3d4,5D0,3d3 4F<3/2>,2256,5,,,,,,,,,,,
56,Ba XXXVI,Ba,XXXVI,35,Barium,Sc,[Ar].3d3,3d3,4F<3/2>,3d2 3F<2>,2349,5,,,,,,,,,,,
56,Ba XXXVII,Ba,XXXVII,36,Barium,Ca,[Ar].3d2,3d2,3F<2>,3d 2D<3/2>,2452,5,,,,,,,,,,,
56,Ba XXXVIII,Ba,XXXVIII,37,Barium,K,[Ar].3d,3d,2D<3/2>,3p6 1S<0>,2547,4,,,,,,,,,,,
56,Ba XXXIX,Ba,XXXIX,38,Barium,Ar,[Ne].3s2.3p6,3p6,1S0,3p5 2P*<3/2>,2814,4,,,,,,,,,,,
56,Ba XL,Ba,XL,39,Barium,Cl,[Ne].3s2.3p5,3s2.3p5,2P*<3/2>,3p4 3P<2>,2901,4,,,,,,,,,,,
56,Ba XLI,Ba,XLI,40,Barium,S,[Ne].3s2.3p4,3s2.3p4,3P<2>,3p3 4S*<3/2>,2994,4,,,,,,,,,,,
56,Ba XLII,Ba,XLII,41,Barium,P,[Ne].3s2.3p3,3s2.3p3,4S*<3/2>,3p2 3P<0>,3081,4,,,,,,,,,,,
56,Ba XLIII,Ba,XLIII,42,Barium,Si,[Ne].3s2.3p2,3s2.3p2,3P0,3p 2P*<1/2>,3266,4,,,,,,,,,,,
56,Ba XLIV,Ba,XLIV,43,Barium,Al,[Ne].3s2.3p,3s2.3p,2P*<1/2>,3s2 1S<0>,3363,4,,,,,,,,,,,
56,Ba XLV,Ba,XLV,44,Barium,Mg,[Ne].3s2,3s2,1S0,3s 2S<1/2>,3546,4,,,,,,,,,,,
56,Ba XLVI,Ba,XLVI,45,Barium,Na,[Ne].3s,3s,2S<1/2>,2p6 1S<0>,3640,4,,,,,,,,,,,
56,Ba XLVII,Ba,XLVII,46,Barium,Ne,1s2.2s2.2p6,2p6,1S0,2p5 2P*<3/2>,8326,4,,,,,,,,,,,
56,Ba XLVIII,Ba,XLVIII,47,Barium,F,1s2.2s2.2p5,2s2.2p5,2P*<3/2>,2p4 3P<2>,8565,4,,,,,,,,,,,
56,Ba XLIX,Ba,XLIX,48,Barium,O,1s2.2s2.2p4,2s2.(2p2<1/2>.2p2<3/2>),"(0,2)<2>","2p2<1/2>.2p<3/2> (0,3/2)*<3/2>",8831,4,,,,,,,,,,,
56,Ba L,Ba,L,49,Barium,N,1s2.2s2.2p3,2s2.2p2<1/2>.2p<3/2>,"(0,3/2)*<3/2>",2p2 3P<0>,9077,4,,,,,,,,,,,
56,Ba LI,Ba,LI,50,Barium,C,1s2.2s2.2p2,2p2,3P0,2p 2P*<1/2>,9739,4,,,,,,,,,,,
56,Ba LII,Ba,LII,51,Barium,B,1s2.2s2.2p,2s2.2p,2P*<1/2>,2s2 1S<0>,10023,4,,,,,,,,,,,
56,Ba LIII,Ba,LIII,52,Barium,Be,1s2.2s2,2s2,1S0,2s 2S<1/2>,10376,4,,,,,,,,,,,
56,Ba LIV,Ba,LIV,53,Barium,Li,1s2.2s,1s2.2s,2S<1/2>,1s2 1S<0>,10616.42,0.05,,,,,,,,,,,
56,Ba LV,Ba,LV,54,Barium,He,1s2,1s2,1S0,1s 2S<1/2>,43485.37,0.04,,,,,,,,,,,
56,Ba LVI,Ba,LVI,55,Barium,H,1s,1s,2S<1/2>,,44561.633,0.024,,,,,,,,,,,
57,La I,La,I,0,Lanthanum,La,[Xe].5d.6s2,5d.6s2,2D<3/2>,5s2.5p6.5d2 3F<2>,5.5769,0.0006,,,,,,,,,,,
57,La II,La,II,1,Lanthanum,Ba,[Xe].5d2,5d2,3F<2>,5s2.5p6.5d 2D<3/2>,11.18496,0.00006,,,,,,,,,,,
57,La III,La,III,2,Lanthanum,Cs,[Xe].5d,5p6.5d,2D<3/2>,5s2.5p6 1S<0>,19.1773,0.0006,,,,,,,,,,,
57,La IV,La,IV,3,Lanthanum,Xe,[Cd].5p6,5p6,1S0,5s2.5p5 2P*<3/2>,49.95,0.06,,,,,,,,,,,
57,La V,La,V,4,Lanthanum,I,[Cd].5p5,5s2.5p5,2P*<3/2>,5s2.5p4 3P<2>,61.6,0.6,,,,,,,,,,,
57,La VI,La,VI,5,Lanthanum,Te,[Cd].5p4,5s2.5p4,3P<2>,5s2.5p3 4S*<3/2>,74,2,,,,,,,,,,,
57,La VII,La,VII,6,Lanthanum,Sb,[Cd].5p3,5s2.5p3,4S*<3/2>,5s2.5p2 3P<0>,88,2,,,,,,,,,,,
57,La VIII,La,VIII,7,Lanthanum,Sn,[Cd].5p2,5s2.5p2,3P0,5s2.5p 2P*<1/2>,105,2.1,,,,,,,,,,,
57,La IX,La,IX,8,Lanthanum,In,[Cd].5p,5s2.5p,2P*<1/2>,5s2 1S<0>,119,2.2,,,,,,,,,,,
57,La X,La,X,9,Lanthanum,Cd,[Kr].4d10.5s2,5s2,1S0,5s 2S<1/2>,151.4,0.7,,,,,,,,,,,
57,La XI,La,XI,10,Lanthanum,Ag,[Kr].4d10.5s,5s,2S<1/2>,4d10 1S<0>,168.77,0.12,,,,,,,,,,,
57,La XII,La,XII,11,Lanthanum,Pd,[Kr].4d10,4d10,1S0,4d9 2D<5/2>,275,2.5,,,,,,,,,,,