At. num,Sp. Name,Element,Valence,Ion Charge,El. Name,Isoel. Seq.,Ground Shells (a),Ground Config.,Ground Level,Ionized Level,Ionization Energy (b) (eV),Uncertainty (c) (eV),,,,,,,,,,,
85,At LXXIII,At,LXXIII,72,Astatine,Al,[Ne].3s2.3p,3p,2P*<1/2>,3s2 1S<0>,9500,70,,,,,,,,,,,
85,At LXXIV,At,LXXIV,73,Astatine,Mg,[Ne].3s2,3s2,1S0,3s 2S<1/2>,9830,90,,,,,,,,,,,
85,At LXXV,At,LXXV,74,Astatine,Na,[Ne].3s,3s,2S<1/2>,2p6 1S<0>,9990,90,,,,,,,,,,,
85,At LXXVI,At,LXXVI,75,Astatine,Ne,1s2.2s2.2p6,2p6,1S0,2p5 2P*<3/2>,21210,100,,,,,,,,,,,
85,At LXXVII,At,LXXVII,76,Astatine,F,1s2.2s2.2p5,2p5,2P*<3/2>,2p4 3P<2>,21600,110,,,,,,,,,,,
85,At LXXVIII,At,LXXVIII,77,Astatine,O,1s2.2s2.2p4,2p4,3P<2>,"2p2<1/2>.2p<3/2> (0,3/2)*<3/2>",22030,120,,,,,,,,,,,
85,At LXXIX,At,LXXIX,78,Astatine,N,1s2.2s2.2p3,2p2<1/2>.2p<3/2>,"(0,3/2)*<3/2>",2p2 3P<0>,22420,120,,,,,,,,,,,
85,At LXXX,At,LXXX,79,Astatine,C,1s2.2s2.2p2,2p2,3P0,2p 2P*<1/2>,25580,140,,,,,,,,,,,
85,At LXXXI,At,LXXXI,80,Astatine,B,1s2.2s2.2p,2p,2P*<1/2>,2s2 1S<0>,26090,150,,,,,,,,,,,
85,At LXXXII,At,LXXXII,81,Astatine,Be,1s2.2s2,2s2,1S0,2s 2S<1/2>,26730,160,,,,,,,,,,,
85,At LXXXIII,At,LXXXIII,82,Astatine,Li,1s2.2s,1s2.2s,2S<1/2>,1s2 1S<0>,27139,0.4,,,,,,,,,,,
85,At LXXXIV,At,LXXXIV,83,Astatine,He,1s2,1s2,1S0,1s 2S<1/2>,107930,0.4,,,,,,,,,,,
85,At LXXXV,At,LXXXV,84,Astatine,H,1s,1s,2S<1/2>,,109887.2,1.5,,,,,,,,,,,
86,Rn I,Rn,I,0,Radon,Rn,[Hg].6p6,6p6,1S0,6p5 2P*<3/2>,10.7485,,,,,,,,,,,,
86,Rn II,Rn,II,1,Radon,At,[Hg].6p5,6p5,2P*<3/2>,6p4 3P<2>,18.99,0.06,,,,,,,,,,,
86,Rn III,Rn,III,2,Radon,Po,[Hg].6p4,6p4,3P<2>,6p3 4S*<3/2>,29.4,1,,,,,,,,,,,
86,Rn IV,Rn,IV,3,Radon,Bi,[Hg].6p3,6p3,4S*<3/2>,6p2 3P<0>,36.9,1.7,,,,,,,,,,,
86,Rn V,Rn,V,4,Radon,Pb,[Hg].6p2,6p2,3P0,6p 2P*<1/2>,52.9,1.9,,,,,,,,,,,
86,Rn VI,Rn,VI,5,Radon,Tl,[Hg].6p,6p,2P*<1/2>,6s2 1S<0>,64,2,,,,,,,,,,,
86,Rn VII,Rn,VII,6,Radon,Hg,[Xe].4f14.5d10.6s2,6s2,1S0,6s 2S<1/2>,88,2,,,,,,,,,,,
86,Rn VIII,Rn,VIII,7,Radon,Au,[Xe].4f14.5d10.6s,6s,2S<1/2>,5d10 1S<0>,102,2.1,,,,,,,,,,,
86,Rn IX,Rn,IX,8,Radon,Pt,[Xe].4f14.5d10,5d10,1S0,5d9 2D<5/2>,154,2.2,,,,,,,,,,,
86,Rn X,Rn,X,9,Radon,Ir,[Xe].4f14.5d9,5d9,2D<5/2>,5d8 3F<4>,173.9,2.2,,,,,,,,,,,
86,Rn XI,Rn,XI,10,Radon,Os,[Xe].4f14.5d8,5d8,3F<4>,5d7 4F<9/2>,195,2.4,,,,,,,,,,,
86,Rn XII,Rn,XII,11,Radon,Re,[Xe].4f14.5d7,5d7,4F<9/2>,5d6 5D<4>,218,2.5,,,,,,,,,,,
86,Rn XIII,Rn,XIII,12,Radon,W,[Xe].4f14.5d6,5d6,5D<4>,5d5 6S<5/2>,240,3,,,,,,,,,,,
86,Rn XIV,Rn,XIV,13,Radon,Ta,[Xe].4f14.5d5,5d5,6S<5/2>,5d4 5D<0>,264,3,,,,,,,,,,,
86,Rn XV,Rn,XV,14,Radon,Hf,[Xe].4f14.5d4,5d4,5D0,5d3 4F<3/2>,293,3,,,,,,,,,,,
86,Rn XVI,Rn,XVI,15,Radon,Lu,[Xe].4f14.5d3,5d3,4F<3/2>,5d2 3F<2>,317,3,,,,,,,,,,,
86,Rn XVII,Rn,XVII,16,Radon,Yb,[Xe].4f14.5d2,5d2,3F<2>,5d 2D<3/2>,342,3,,,,,,,,,,,
86,Rn XVIII,Rn,XVIII,17,Radon,Tm,[Xe].4f14.5d,5d,2D<3/2>,4f14 1S<0>,367,3,,,,,,,,,,,
86,Rn XIX,Rn,XIX,18,Radon,Er,[Xe].4f14,4f14,1S0,4f14.5p5 2P*<3/2>,488,25,,,,,,,,,,,
86,Rn XX,Rn,XX,19,Radon,Ho,[Cd].4f14.5p5,4f14.5p5,2P*<3/2>,4f14.5p4 3P<2>,520,30,,,,,,,,,,,
86,Rn XXI,Rn,XXI,20,Radon,Dy,[Cd].4f14.5p4,4f14.5p4,3P<2>,4f14.5p3 2P*<3/2>,550,30,,,,,,,,,,,
86,Rn XXII,Rn,XXII,21,Radon,Tb,[Cd].4f14.5p3,4f14.5p3,2P*<3/2>,4f14.5p2 3P<0>,580,30,,,,,,,,,,,
86,Rn XXIII,Rn,XXIII,22,Radon,Gd,[Cd].4f14.5p2,4f14.5p2,3P0,4f14.5p 2P*<1/2>,640,30,,,,,,,,,,,
86,Rn XXIV,Rn,XXIV,23,Radon,Eu,[Cd].4f14.5p,4f14.5p,2P*<1/2>,4f14 1S<0>,680,30,,,,,,,,,,,
86,Rn XXV,Rn,XXV,24,Radon,Sm,[Cd].4f14,4f14,1S0,4f14.5s 2S<1/2>,760,40,,,,,,,,,,,
86,Rn XXVI,Rn,XXVI,25,Radon,Pm,[Kr].4d10.4f14.5s,4f14.5s,2S<1/2>,4f14 1S<0>,800,40,,,,,,,,,,,
86,Rn XXVII,Rn,XXVII,26,Radon,Nd,[Kr].4d10.4f14,4f14,1S0,4f13 2F*<7/2>,850,40,,,,,,,,,,,
86,Rn XXVIII,Rn,XXVIII,27,Radon,Pr,[Kr].4d10.4f13,4f13,2F*<7/2>,4f12,920,50,,,,,,,,,,,
86,Rn XXIX,Rn,XXIX,28,Radon,Ce,[Kr].4d10.4f12,4f12,,4f11 4I*<15/2>,980,50,,,,,,,,,,,
86,Rn XXX,Rn,XXX,29,Radon,La,[Kr].4d10.4f11,4f11,4I*<15/2>,4f10 5I<8>,1050,50,,,,,,,,,,,
86,Rn XXXI,Rn,XXXI,30,Radon,Ba,[Kr].4d10.4f10,4f10,5I<8>,4f9 6H*<15/2>,1110,60,,,,,,,,,,,
86,Rn XXXII,Rn,XXXII,31,Radon,Cs,[Kr].4d10.4f9,4f9,6H*<15/2>,4f8 7F<6>,1180,60,,,,,,,,,,,
86,Rn XXXIII,Rn,XXXIII,32,Radon,Xe,[Kr].4d10.4f8,4f8,7F<6>,4f7 8S*<7/2>,1250,60,,,,,,,,,,,
86,Rn XXXIV,Rn,XXXIV,33,Radon,I,[Kr].4d10.4f7,4f7,8S*<7/2>,4f6 7F<0>,1310,70,,,,,,,,,,,
86,Rn XXXV,Rn,XXXV,34,Radon,Te,[Kr].4d10.4f6,4f6,7F0,4f5 6H*<5/2>,1390,70,,,,,,,,,,,
86,Rn XXXVI,Rn,XXXVI,35,Radon,Sb,[Kr].4d10.4f5,4f5,6H*<5/2>,4f4 5I<4>,1460,70,,,,,,,,,,,
86,Rn XXXVII,Rn,XXXVII,36,Radon,Sn,[Kr].4d10.4f4,4f4,5I<4>,4f3 4I*<9/2>,1520,80,,,,,,,,,,,
86,Rn XXXVIII,Rn,XXXVIII,37,Radon,In,[Kr].4d10.4f3,4f3,4I*<9/2>,4f2 3H<4>,1590,70,,,,,,,,,,,
86,Rn XXXIX,Rn,XXXIX,38,Radon,Cd,[Kr].4d10.4f2,4f2,3H<4>,4f 2F*<5/2>,1660,90,,,,,,,,,,,
86,Rn XL,Rn,XL,39,Radon,Ag,[Kr].4d10.4f,4f,2F*<5/2>,4d10 1S<0>,1720,90,,,,,,,,,,,
86,Rn XLI,Rn,XLI,40,Radon,Pd,[Kr].4d10,4d10,1S0,4d9 2D<5/2>,2033,4,,,,,,,,,,,
86,Rn XLII,Rn,XLII,41,Radon,Rh,[Kr].4d9,4d9,2D<5/2>,4d8 3F<4>,2094,4,,,,,,,,,,,
86,Rn XLIII,Rn,XLIII,42,Radon,Ru,[Kr].4d8,4d8,3F<4>,4d7 4F<9/2>,2158,4,,,,,,,,,,,
86,Rn XLIV,Rn,XLIV,43,Radon,Tc,[Kr].4d7,4d7,4F<9/2>,4d6 5D<4>,2227,4,,,,,,,,,,,
86,Rn XLV,Rn,XLV,44,Radon,Mo,[Kr].4d6,4d6,5D<4>,"4d-4.4d+ (0,5/2)<5/2>",2293,4,,,,,,,,,,,
86,Rn XLVI,Rn,XLVI,45,Radon,Nb,[Kr].4d5,4d-4.4d+,"(0,5/2)<5/2>",4d4 5D<0>,2357,4,,,,,,,,,,,
86,Rn XLVII,Rn,XLVII,46,Radon,Zr,[Kr].4d4,4d4,5D0,4d3 4F<3/2>,2467,4,,,,,,,,,,,
86,Rn XLVIII,Rn,XLVIII,47,Radon,Y,[Kr].4d3,4d3,4F<3/2>,4d2 3F<2>,2535,4,,,,,,,,,,,
86,Rn XLIX,Rn,XLIX,48,Radon,Sr,[Kr].4d2,4d2,3F<2>,4d 2D<3/2>,2606,4,,,,,,,,,,,
86,Rn L,Rn,L,49,Radon,Rb,[Kr].4d,4d,2D<3/2>,4p6 1S<0>,2674,4,,,,,,,,,,,
86,Rn LI,Rn,LI,50,Radon,Kr,[Ar].3d10.4s2.4p6,4p6,1S0,4p5 2P*<3/2>,2944,4,,,,,,,,,,,
86,Rn LII,Rn,LII,51,Radon,Br,[Ar].3d10.4s2.4p5,4p5,2P*<3/2>,4p4 3P<2>,3010,4,,,,,,,,,,,
86,Rn LIII,Rn,LIII,52,Radon,Se,[Ar].3d10.4s2.4p4,4p4,3P<2>,"4p-2.4p+ (0,3/2)*<3/2>",3082,4,,,,,,,,,,,
86,Rn LIV,Rn,LIV,53,Radon,As,[Ar].3d10.4s2.4p3,4p-2.4p+,"(0,3/2)*<3/2>",4p2 3P<0>,3149,5,,,,,,,,,,,
86,Rn LV,Rn,LV,54,Radon,Ge,[Ar].3d10.4s2.4p2,4p2,3P0,4p 2P*<1/2>,3433,5,,,,,,,,,,,
86,Rn LVI,Rn,LVI,55,Radon,Ga,[Ar].3d10.4s2.4p,4p,2P*<1/2>,4s2 1S<0>,3510,5,,,,,,,,,,,
86,Rn LVII,Rn,LVII,56,Radon,Zn,[Ar].3d10.4s2,4s2,1S0,4s 2S<1/2>,3699,5,,,,,,,,,,,
86,Rn LVIII,Rn,LVIII,57,Radon,Cu,[Ar].3d10.4s,4s,2S<1/2>,3d10 1S<0>,3777,3,,,,,,,,,,,
86,Rn LIX,Rn,LIX,58,Radon,Ni,[Ar].3d10,3d10,1S0,3d9 2D<5/2>,6169,6,,,,,,,,,,,
86,Rn LX,Rn,LX,59,Radon,Co,[Ar].3d9,3d9,2D<5/2>,3d8 3F<4>,6318,7,,,,,,,,,,,
86,Rn LXI,Rn,LXI,60,Radon,Fe,[Ar].3d8,3d8,3F<4>,3d7 4F<9/2>,6476,10,,,,,,,,,,,
86,Rn LXII,Rn,LXII,61,Radon,Mn,[Ar].3d7,3d7,4F<9/2>,"3d-4.3d+2 (0,4)<4>",6646,12,,,,,,,,,,,
86,Rn LXIII,Rn,LXIII,62,Radon,Cr,[Ar].3d6,3d-4.3d+2,"(0,4)<4>","3d-4.3d+ (0,5/2)<5/2>",6807,15,,,,,,,,,,,
86,Rn LXIV,Rn,LXIV,63,Radon,V,[Ar].3d5,3d-4.3d+,"(0,5/2)<5/2>",3d4 5D<0>,6964,19,,,,,,,,,,,
86,Rn LXV,Rn,LXV,64,Radon,Ti,[Ar].3d4,3d4,5D0,3d3 4F<3/2>,7283,24,,,,,,,,,,,
86,Rn LXVI,Rn,LXVI,65,Radon,Sc,[Ar].3d3,3d3,4F<3/2>,3d2 3F<2>,7450,30,,,,,,,,,,,
86,Rn LXVII,Rn,LXVII,66,Radon,Ca,[Ar].3d2,3d2,3F<2>,3d 2D<3/2>,7630,40,,,,,,,,,,,
86,Rn LXVIII,Rn,LXVIII,67,Radon,K,[Ar].3d,3d,2D<3/2>,3p6 1S<0>,7800,40,,,,,,,,,,,
86,Rn LXIX,Rn,LXIX,68,Radon,Ar,[Ne].3s2.3p6,3p6,1S0,3p5 2P*<3/2>,8260,50,,,,,,,,,,,
86,Rn LXX,Rn,LXX,69,Radon,Cl,[Ne].3s2.3p5,3p5,2P*<3/2>,3p4 3P<2>,8410,50,,,,,,,,,,,
86,Rn LXXI,Rn,LXXI,70,Radon,S,[Ne].3s2.3p4,3p4,3P<2>,3p3 2P*<3/2>,8570,60,,,,,,,,,,,
86,Rn LXXII,Rn,LXXII,71,Radon,P,[Ne].3s2.3p3,3p3,2P*<3/2>,3p2 3P<0>,8710,60,,,,,,,,,,,
86,Rn LXXIII,Rn,LXXIII,72,Radon,Si,[Ne].3s2.3p2,3p2,3P0,3p 2P*<1/2>,9610,70,,,,,,,,,,,
86,Rn LXXIV,Rn,LXXIV,73,Radon,Al,[Ne].3s2.3p,3p,2P*<1/2>,3s2 1S<0>,9780,90,,,,,,,,,,,
86,Rn LXXV,Rn,LXXV,74,Radon,Mg,[Ne].3s2,3s2,1S0,3s 2S<1/2>,10120,90,,,,,,,,,,,
86,Rn LXXVI,Rn,LXXVI,75,Radon,Na,[Ne].3s,3s,2S<1/2>,2p6 1S<0>,10290,100,,,,,,,,,,,
86,Rn LXXVII,Rn,LXXVII,76,Radon,Ne,1s2.2s2.2p6,2p6,1S0,2p5 2P*<3/2>,21770,110,,,,,,,,,,,
86,Rn LXXVIII,Rn,LXXVIII,77,Radon,F,1s2.2s2.2p5,2p5,2P*<3/2>,2p4 3P<2>,22160,120,,,,,,,,,,,
86,Rn LXXIX,Rn,LXXIX,78,Radon,O,1s2.2s2.2p4,2p4,3P<2>,"2p2<1/2>.2p<3/2> (0,3/2)*<3/2>",22600,120,,,,,,,,,,,
86,Rn LXXX,Rn,LXXX,79,Radon,N,1s2.2s2.2p3,2p2<1/2>.2p<3/2>,"(0,3/2)*<3/2>",2p2 3P<0>,22990,140,,,,,,,,,,,
86,Rn LXXXI,Rn,LXXXI,80,Radon,C,1s2.2s2.2p2,2p2,3P0,2p 2P*<1/2>,26310,150,,,,,,,,,,,
86,Rn LXXXII,Rn,LXXXII,81,Radon,B,1s2.2s2.2p,2p,2P*<1/2>,2s2 1S<0>,26830,160,,,,,,,,,,,
86,Rn LXXXIII,Rn,LXXXIII,82,Radon,Be,1s2.2s2,2s2,1S0,2s 2S<1/2>,27490,170,,,,,,,,,,,
86,Rn LXXXIV,Rn,LXXXIV,83,Radon,Li,1s2.2s,1s2.2s,2S<1/2>,1s2 1S<0>,27903.1,0.5,,,,,,,,,,,
86,Rn LXXXV,Rn,LXXXV,84,Radon,He,1s2,1s2,1S0,1s 2S<1/2>,110846.3,0.5,,,,,,,,,,,
86,Rn LXXXVI,Rn,LXXXVI,85,Radon,H,1s,1s,2S<1/2>,,112842.2,0.7,,,,,,,,,,,
87,Fr I,Fr,I,0,Francium,Fr,[Rn].7s,7s,2S<1/2>,6p6 1S<0>,4.0727411,0.0000011,,,,,,,,,,,
87,Fr II,Fr,II,1,Francium,Rn,[Hg].6p6,6p6,1S0,6p5 2P*<3/2>,22.4,1.9,,,,,,,,,,,
87,Fr III,Fr,III,2,Francium,At,[Hg].6p5,6p5,2P*<3/2>,6p4 3P<2>,33.5,1.5,,,,,,,,,,,
87,Fr IV,Fr,IV,3,Francium,Po,[Hg].6p4,6p4,3P<2>,6p3 4S*<3/2>,39.1,1.7,,,,,,,,,,,
87,Fr V,Fr,V,4,Francium,Bi,[Hg].6p3,6p3,4S*<3/2>,6p2 3P<0>,50,1.9,,,,,,,,,,,
87,Fr VI,Fr,VI,5,Francium,Pb,[Hg].6p2,6p2,3P0,6p 2P*<1/2>,67,2,,,,,,,,,,,
87,Fr VII,Fr,VII,6,Francium,Tl,[Hg].6p,6p,2P*<1/2>,6s2 1S<0>,80,2,,,,,,,,,,,
87,Fr VIII,Fr,VIII,7,Francium,Hg,[Xe].4f14.5d10.6s2,6s2,1S0,6s 2S<1/2>,106,2.1,,,,,,,,,,,
87,Fr IX,Fr,IX,8,Francium,Au,[Xe].4f14.5d10.6s,6s,2S<1/2>,5d10 1S<0>,120,2.2,,,,,,,,,,,
87,Fr X,Fr,X,9,Francium,Pt,[Xe].4f14.5d10,5d10,1S0,5d9 2D<5/2>,179,2.2,,,,,,,,,,,
87,Fr XI,Fr,XI,10,Francium,Ir,[Xe].4f14.5d9,5d9,2D<5/2>,5d8 3F<4>,200,2.4,,,,,,,,,,,
87,Fr XII,Fr,XII,11,Francium,Os,[Xe].4f14.5d8,5d8,3F<4>,5d7 4F<9/2>,222.1,2.5,,,,,,,,,,,
87,Fr XIII,Fr,XIII,12,Francium,Re,[Xe].4f14.5d7,5d7,4F<9/2>,5d6 5D<4>,245,3,,,,,,,,,,,
87,Fr XIV,Fr,XIV,13,Francium,W,[Xe].4f14.5d6,5d6,5D<4>,5d5 6S<5/2>,269,3,,,,,,,,,,,
87,Fr XV,Fr,XV,14,Francium,Ta,[Xe].4f14.5d5,5d5,6S<5/2>,5d4 5D<0>,293,3,,,,,,,,,,,
87,Fr XVI,Fr,XVI,15,Francium,Hf,[Xe].4f14.5d4,5d4,5D0,5d3 4F<3/2>,324,3,,,,,,,,,,,
87,Fr XVII,Fr,XVII,16,Francium,Lu,[Xe].4f14.5d3,5d3,4F<3/2>,5d2 3F<2>,349,3,,,,,,,,,,,
87,Fr XVIII,Fr,XVIII,17,Francium,Yb,[Xe].4f14.5d2,5d2,3F<2>,5d 2D<3/2>,375,3,,,,,,,,,,,
87,Fr XIX,Fr,XIX,18,Francium,Tm,[Xe].4f14.5d,5d,2D<3/2>,4f14 1S<0>,400,3,,,,,,,,,,,
87,Fr XX,Fr,XX,19,Francium,Er,[Xe].4f14,4f14,1S0,4f14.5p5 2P*<3/2>,530,30,,,,,,,,,,,
87,Fr XXI,Fr,XXI,20,Francium,Ho,[Cd].4f14.5p5,4f14.5p5,2P*<3/2>,4f14.5p4 3P<2>,560,30,,,,,,,,,,,
87,Fr XXII,Fr,XXII,21,Francium,Dy,[Cd].4f14.5p4,4f14.5p4,3P<2>,4f14.5p3 2P*<3/2>,590,30,,,,,,,,,,,
87,Fr XXIII,Fr,XXIII,22,Francium,Tb,[Cd].4f14.5p3,4f14.5p3,2P*<3/2>,4f14.5p2 3P<0>,620,30,,,,,,,,,,,
87,Fr XXIV,Fr,XXIV,23,Francium,Gd,[Cd].4f14.5p2,4f14.5p2,3P0,4f14.5p 2P*<1/2>,690,30,,,,,,,,,,,
87,Fr XXV,Fr,XXV,24,Francium,Eu,[Cd].4f14.5p,4f14.5p,2P*<1/2>,4f14 1S<0>,720,40,,,,,,,,,,,
87,Fr XXVI,Fr,XXVI,25,Francium,Sm,[Cd].4f14,4f14,1S0,4f14.5s 2S<1/2>,810,40,,,,,,,,,,,
87,Fr XXVII,Fr,XXVII,26,Francium,Pm,[Kr].4d10.4f14.5s,4f14.5s,2S<1/2>,4f14 1S<0>,850,40,,,,,,,,,,,
87,Fr XXVIII,Fr,XXVIII,27,Francium,Nd,[Kr].4d10.4f14,4f14,1S0,4f13 2F*<7/2>,910,50,,,,,,,,,,,
87,Fr XXIX,Fr,XXIX,28,Francium,Pr,[Kr].4d10.4f13,4f13,2F*<7/2>,4f12,980,50,,,,,,,,,,,
87,Fr XXX,Fr,XXX,29,Francium,Ce,[Kr].4d10.4f12,4f12,,4f11 4I*<15/2>,1040,50,,,,,,,,,,,
87,Fr XXXI,Fr,XXXI,30,Francium,La,[Kr].4d10.4f11,4f11,4I*<15/2>,4f10 5I<8>,1110,50,,,,,,,,,,,
87,Fr XXXII,Fr,XXXII,31,Francium,Ba,[Kr].4d10.4f10,4f10,5I<8>,4f9 6H*<15/2>,1180,60,,,,,,,,,,,
87,Fr XXXIII,Fr,XXXIII,32,Francium,Cs,[Kr].4d10.4f9,4f9,6H*<15/2>,4f8 7F<6>,1250,60,,,,,,,,,,,
87,Fr XXXIV,Fr,XXXIV,33,Francium,Xe,[Kr].4d10.4f8,4f8,7F<6>,4f7 8S*<7/2>,1320,70,,,,,,,,,,,
87,Fr XXXV,Fr,XXXV,34,Francium,I,[Kr].4d10.4f7,4f7,8S*<7/2>,4f6 7F<0>,1380,70,,,,,,,,,,,
87,Fr XXXVI,Fr,XXXVI,35,Francium,Te,[Kr].4d10.4f6,4f6,7F0,4f5 6H*<5/2>,1460,70,,,,,,,,,,,
87,Fr XXXVII,Fr,XXXVII,36,Francium,Sb,[Kr].4d10.4f5,4f5,6H*<5/2>,4f4 5I<4>,1530,80,,,,,,,,,,,
87,Fr XXXVIII,Fr,XXXVIII,37,Francium,Sn,[Kr].4d10.4f4,4f4,5I<4>,4f3 4I*<9/2>,1600,80,,,,,,,,,,,
87,Fr XXXIX,Fr,XXXIX,38,Francium,In,[Kr].4d10.4f3,4f3,4I*<9/2>,4f2 3H<4>,1670,90,,,,,,,,,,,
87,Fr XL,Fr,XL,39,Francium,Cd,[Kr].4d10.4f2,4f2,3H<4>,4f 2F*<5/2>,1740,90,,,,,,,,,,,
87,Fr XLI,Fr,XLI,40,Francium,Ag,[Kr].4d10.4f,4f,2F*<5/2>,4d10 1S<0>,1810,90,,,,,,,,,,,
87,Fr XLII,Fr,XLII,41,Francium,Pd,[Kr].4d10,4d10,1S0,4d9 2D<5/2>,2119,4,,,,,,,,,,,
87,Fr XLIII,Fr,XLIII,42,Francium,Rh,[Kr].4d9,4d9,2D<5/2>,4d8 3F<4>,2182,4,,,,,,,,,,,
87,Fr XLIV,Fr,XLIV,43,Francium,Ru,[Kr].4d8,4d8,3F<4>,4d7 4F<9/2>,2247,4,,,,,,,,,,,
87,Fr XLV,Fr,XLV,44,Francium,Tc,[Kr].4d7,4d7,4F<9/2>,4d6 5D<4>,2317,4,,,,,,,,,,,
87,Fr XLVI,Fr,XLVI,45,Francium,Mo,[Kr].4d6,4d6,5D<4>,"4d-4.4d+ (0,5/2)<5/2>",2384,4,,,,,,,,,,,
87,Fr XLVII,Fr,XLVII,46,Francium,Nb,[Kr].4d5,4d-4.4d+,"(0,5/2)<5/2>",4d4 5D<0>,2450,4,,,,,,,,,,,
87,Fr XLVIII,Fr,XLVIII,47,Francium,Zr,[Kr].4d4,4d4,5D0,4d3 4F<3/2>,2564,4,,,,,,,,,,,
87,Fr XLIX,Fr,XLIX,48,Francium,Y,[Kr].4d3,4d3,4F<3/2>,4d2 3F<2>,2631,4,,,,,,,,,,,
87,Fr L,Fr,L,49,Francium,Sr,[Kr].4d2,4d2,3F<2>,4d 2D<3/2>,2706,4,,,,,,,,,,,
87,Fr LI,Fr,LI,50,Francium,Rb,[Kr].4d,4d,2D<3/2>,4p6 1S<0>,2774,4,,,,,,,,,,,
87,Fr LII,Fr,LII,51,Francium,Kr,[Ar].3d10.4s2.4p6,4p6,1S0,4p5 2P*<3/2>,3049,4,,,,,,,,,,,
87,Fr LIII,Fr,LIII,52,Francium,Br,[Ar].3d10.4s2.4p5,4p5,2P*<3/2>,4p4 3P<2>,3115,4,,,,,,,,,,,
87,Fr LIV,Fr,LIV,53,Francium,Se,[Ar].3d10.4s2.4p4,4p4,3P<2>,"4p-2.4p+ (0,3/2)*<3/2>",3190,5,,,,,,,,,,,
87,Fr LV,Fr,LV,54,Francium,As,[Ar].3d10.4s2.4p3,4p-2.4p+,"(0,3/2)*<3/2>",4p2 3P<0>,3257,5,,,,,,,,,,,
87,Fr LVI,Fr,LVI,55,Francium,Ge,[Ar].3d10.4s2.4p2,4p2,3P0,4p 2P*<1/2>,3556,5,,,,,,,,,,,
87,Fr LVII,Fr,LVII,56,Francium,Ga,[Ar].3d10.4s2.4p,4p,2P*<1/2>,4s2 1S<0>,3635,5,,,,,,,,,,,
87,Fr LVIII,Fr,LVIII,57,Francium,Zn,[Ar].3d10.4s2,4s2,1S0,4s 2S<1/2>,3828,6,,,,,,,,,,,
87,Fr LIX,Fr,LIX,58,Francium,Cu,[Ar].3d10.4s,4s,2S<1/2>,3d10 1S<0>,3907,4,,,,,,,,,,,
87,Fr LX,Fr,LX,59,Francium,Ni,[Ar].3d10,3d10,1S0,3d9 2D<5/2>,6365,7,,,,,,,,,,,
87,Fr LXI,Fr,LXI,60,Francium,Co,[Ar].3d9,3d9,2D<5/2>,3d8 3F<4>,6516,10,,,,,,,,,,,
87,Fr LXII,Fr,LXII,61,Francium,Fe,[Ar].3d8,3d8,3F<4>,3d7 4F<9/2>,6678,12,,,,,,,,,,,
87,Fr LXIII,Fr,LXIII,62,Francium,Mn,[Ar].3d7,3d7,4F<9/2>,"3d-4.3d+2 (0,4)<4>",6849,15,,,,,,,,,,,
87,Fr LXIV,Fr,LXIV,63,Francium,Cr,[Ar].3d6,3d-4.3d+2,"(0,4)<4>","3d-4.3d+ (0,5/2)<5/2>",7013,19,,,,,,,,,,,
87,Fr LXV,Fr,LXV,64,Francium,V,[Ar].3d5,3d-4.3d+,"(0,5/2)<5/2>",3d4 5D<0>,7172,24,,,,,,,,,,,
87,Fr LXVI,Fr,LXVI,65,Francium,Ti,[Ar].3d4,3d4,5D0,3d3 4F<3/2>,7500,30,,,,,,,,,,,
87,Fr LXVII,Fr,LXVII,66,Francium,Sc,[Ar].3d3,3d3,4F<3/2>,3d2 3F<2>,7670,40,,,,,,,,,,,
87,Fr LXVIII,Fr,LXVIII,67,Francium,Ca,[Ar].3d2,3d2,3F<2>,3d 2D<3/2>,7850,40,,,,,,,,,,,
87,Fr LXIX,Fr,LXIX,68,Francium,K,[Ar].3d,3d,2D<3/2>,3p6 1S<0>,8020,50,,,,,,,,,,,
87,Fr LXX,Fr,LXX,69,Francium,Ar,[Ne].3s2.3p6,3p6,1S0,3p5 2P*<3/2>,8500,50,,,,,,,,,,,
87,Fr LXXI,Fr,LXXI,70,Francium,Cl,[Ne].3s2.3p5,3p5,2P*<3/2>,3p4 3P<2>,8640,60,,,,,,,,,,,
87,Fr LXXII,Fr,LXXII,71,Francium,S,[Ne].3s2.3p4,3p4,3P<2>,3p3 2P*<3/2>,8800,60,,,,,,,,,,,
87,Fr LXXIII,Fr,LXXIII,72,Francium,P,[Ne].3s2.3p3,3p3,2P*<3/2>,3p2 3P<0>,8950,70,,,,,,,,,,,
87,Fr LXXIV,Fr,LXXIV,73,Francium,Si,[Ne].3s2.3p2,3p2,3P0,3p 2P*<1/2>,9890,90,,,,,,,,,,,
87,Fr LXXV,Fr,LXXV,74,Francium,Al,[Ne].3s2.3p,3p,2P*<1/2>,3s2 1S<0>,10070,90,,,,,,,,,,,
87,Fr LXXVI,Fr,LXXVI,75,Francium,Mg,[Ne].3s2,3s2,1S0,3s 2S<1/2>,10420,100,,,,,,,,,,,
87,Fr LXXVII,Fr,LXXVII,76,Francium,Na,[Ne].3s,3s,2S<1/2>,2p6 1S<0>,10590,110,,,,,,,,,,,
87,Fr LXXVIII,Fr,LXXVIII,77,Francium,Ne,1s2.2s2.2p6,2p6,1S0,2p5 2P*<3/2>,22330,120,,,,,,,,,,,
87,Fr LXXIX,Fr,LXXIX,78,Francium,F,1s2.2s2.2p5,2p5,2P*<3/2>,2p4 3P<2>,22730,120,,,,,,,,,,,
87,Fr LXXX,Fr,LXXX,79,Francium,O,1s2.2s2.2p4,2p4,3P<2>,"2p2<1/2>.2p<3/2> (0,3/2)*<3/2>",23170,140,,,,,,,,,,,
87,Fr LXXXI,Fr,LXXXI,80,Francium,N,1s2.2s2.2p3,2p2<1/2>.2p<3/2>,"(0,3/2)*<3/2>",2p2 3P<0>,23570,150,,,,,,,,,,,
87,Fr LXXXII,Fr,LXXXII,81,Francium,C,1s2.2s2.2p2,2p2,3P0,2p 2P*<1/2>,27060,160,,,,,,,,,,,
87,Fr LXXXIII,Fr,LXXXIII,82,Francium,B,1s2.2s2.2p,2p,2P*<1/2>,2s2 1S<0>,27590,170,,,,,,,,,,,
87,Fr LXXXIV,Fr,LXXXIV,83,Francium,Be,1s2.2s2,2s2,1S0,2s 2S<1/2>,28260,190,,,,,,,,,,,
87,Fr LXXXV,Fr,LXXXV,84,Francium,Li,1s2.2s,1s2.2s,2S<1/2>,1s2 1S<0>,28683.4,0.5,,,,,,,,,,,
87,Fr LXXXVI,Fr,LXXXVI,85,Francium,He,1s2,1s2,1S0,1s 2S<1/2>,113821.9,0.5,,,,,,,,,,,
87,Fr LXXXVII,Fr,LXXXVII,86,Francium,H,1s,1s,2S<1/2>,,115857.5,0.7,,,,,,,,,,,
88,Ra I,Ra,I,0,Radium,Ra,[Rn].7s2,7s2,1S0,6p6.7s 2S<1/2>,5.2784239,0.0000025,,,,,,,,,,,
88,Ra II,Ra,II,1,Radium,Fr,[Rn].7s,7s,2S<1/2>,6p6 1S<0>,10.14718,0.00006,,,,,,,,,,,
88,Ra III,Ra,III,2,Radium,Rn,[Hg].6p6,6p6,1S0,6p5 2P*<3/2>,31,1.6,,,,,,,,,,,
88,Ra IV,Ra,IV,3,Radium,At,[Hg].6p5,6p5,2P*<3/2>,6p4 3P<2>,41,1.7,,,,,,,,,,,
88,Ra V,Ra,V,4,Radium,Po,[Hg].6p4,6p4,3P<2>,6p3 4S*<3/2>,52.9,1.9,,,,,,,,,,,
88,Ra VI,Ra,VI,5,Radium,Bi,[Hg].6p3,6p3,4S*<3/2>,6p2 3P<0>,64,2,,,,,,,,,,,
88,Ra VII,Ra,VII,6,Radium,Pb,[Hg].6p2,6p2,3P0,6p 2P*<1/2>,82,2,,,,,,,,,,,
88,Ra VIII,Ra,VIII,7,Radium,Tl,[Hg].6p,6p,2P*<1/2>,6s2 1S<0>,97,2.1,,,,,,,,,,,
88,Ra IX,Ra,IX,8,Radium,Hg,[Xe].4f14.5d10.6s2,6s2,1S0,6s 2S<1/2>,124,2.2,,,,,,,,,,,
88,Ra X,Ra,X,9,Radium,Au,[Xe].4f14.5d10.6s,6s,2S<1/2>,5d10 1S<0>,140,2.2,,,,,,,,,,,
88,Ra XI,Ra,XI,10,Radium,Pt,[Xe].4f14.5d10,5d10,1S0,5d9 2D<5/2>,204.9,2.4,,,,,,,,,,,
88,Ra XII,Ra,XII,11,Radium,Ir,[Xe].4f14.5d9,5d9,2D<5/2>,5d8 3F<4>,227,2.5,,,,,,,,,,,
88,Ra XIII,Ra,XIII,12,Radium,Os,[Xe].4f14.5d8,5d8,3F<4>,5d7 4F<9/2>,250,3,,,,,,,,,,,
88,Ra XIV,Ra,XIV,13,Radium,Re,[Xe].4f14.5d7,5d7,4F<9/2>,5d6 5D<4>,274,3,,,,,,,,,,,
88,Ra XV,Ra,XV,14,Radium,W,[Xe].4f14.5d6,5d6,5D<4>,5d5 6S<5/2>,299,3,,,,,,,,,,,
88,Ra XVI,Ra,XVI,15,Radium,Ta,[Xe].4f14.5d5,5d5,6S<5/2>,5d4 5D<0>,324,3,,,,,,,,,,,
88,Ra XVII,Ra,XVII,16,Radium,Hf,[Xe].4f14.5d4,5d4,5D0,5d3 4F<3/2>,356,3,,,,,,,,,,,
88,Ra XVIII,Ra,XVIII,17,Radium,Lu,[Xe].4f14.5d3,5d3,4F<3/2>,5d2 3F<2>,382,3,,,,,,,,,,,
88,Ra XIX,Ra,XIX,18,Radium,Yb,[Xe].4f14.5d2,5d2,3F<2>,5d 2D<3/2>,409,3,,,,,,,,,,,
88,Ra XX,Ra,XX,19,Radium,Tm,[Xe].4f14.5d,5d,2D<3/2>,4f14 1S<0>,435,4,,,,,,,,,,,
88,Ra XXI,Ra,XXI,20,Radium,Er,[Xe].4f14,4f14,1S0,4f14.5p5 2P*<3/2>,570,30,,,,,,,,,,,
88,Ra XXII,Ra,XXII,21,Radium,Ho,[Cd].4f14.5p5,4f14.5p5,2P*<3/2>,4f14.5p4 3P<2>,600,30,,,,,,,,,,,
88,Ra XXIII,Ra,XXIII,22,Radium,Dy,[Cd].4f14.5p4,4f14.5p4,3P<2>,4f14.5p3 2P*<3/2>,630,30,,,,,,,,,,,
88,Ra XXIV,Ra,XXIV,23,Radium,Tb,[Cd].4f14.5p3,4f14.5p3,2P*<3/2>,4f14.5p2 3P<0>,660,30,,,,,,,,,,,
88,Ra XXV,Ra,XXV,24,Radium,Gd,[Cd].4f14.5p2,4f14.5p2,3P0,4f14.5p 2P*<1/2>,740,40,,,,,,,,,,,
88,Ra XXVI,Ra,XXVI,25,Radium,Eu,[Cd].4f14.5p,4f14.5p,2P*<1/2>,4f14 1S<0>,770,40,,,,,,,,,,,
88,Ra XXVII,Ra,XXVII,26,Radium,Sm,[Cd].4f14,4f14,1S0,4f14.5s 2S<1/2>,860,40,,,,,,,,,,,
88,Ra XXVIII,Ra,XXVIII,27,Radium,Pm,[Kr].4d10.4f14.5s,4f14.5s,2S<1/2>,4f14 1S<0>,900,40,,,,,,,,,,,
88,Ra XXIX,Ra,XXIX,28,Radium,Nd,[Kr].4d10.4f14,4f14,1S0,4f13 2F*<7/2>,970,50,,,,,,,,,,,
88,Ra XXX,Ra,XXX,29,Radium,Pr,[Kr].4d10.4f13,4f13,2F*<7/2>,4f12,1040,50,,,,,,,,,,,
88,Ra XXXI,Ra,XXXI,30,Radium,Ce,[Kr].4d10.4f12,4f12,,4f11 4I*<15/2>,1110,60,,,,,,,,,,,
88,Ra XXXII,Ra,XXXII,31,Radium,La,[Kr].4d10.4f11,4f11,4I*<15/2>,4f10 5I<8>,1180,60,,,,,,,,,,,
88,Ra XXXIII,Ra,XXXIII,32,Radium,Ba,[Kr].4d10.4f10,4f10,5I<8>,4f9 6H*<15/2>,1250,60,,,,,,,,,,,
88,Ra XXXIV,Ra,XXXIV,33,Radium,Cs,[Kr].4d10.4f9,4f9,6H*<15/2>,4f8 7F<6>,1320,70,,,,,,,,,,,
88,Ra XXXV,Ra,XXXV,34,Radium,Xe,[Kr].4d10.4f8,4f8,7F<6>,4f7 8S*<7/2>,1390,70,,,,,,,,,,,
88,Ra XXXVI,Ra,XXXVI,35,Radium,I,[Kr].4d10.4f7,4f7,8S*<7/2>,4f6 7F<0>,1460,70,,,,,,,,,,,
88,Ra XXXVII,Ra,XXXVII,36,Radium,Te,[Kr].4d10.4f6,4f6,7F0,4f5 6H*<5/2>,1530,80,,,,,,,,,,,
88,Ra XXXVIII,Ra,XXXVIII,37,Radium,Sb,[Kr].4d10.4f5,4f5,6H*<5/2>,4f4 5I<4>,1610,80,,,,,,,,,,,
88,Ra XXXIX,Ra,XXXIX,38,Radium,Sn,[Kr].4d10.4f4,4f4,5I<4>,4f3 4I*<9/2>,1680,80,,,,,,,,,,,
88,Ra XL,Ra,XL,39,Radium,In,[Kr].4d10.4f3,4f3,4I*<9/2>,4f2 3H<4>,1750,90,,,,,,,,,,,
88,Ra XLI,Ra,XLI,40,Radium,Cd,[Kr].4d10.4f2,4f2,3H<4>,4f 2F*<5/2>,1820,90,,,,,,,,,,,