At. num,Sp. Name,Element,Valence,Ion Charge,El. Name,Isoel. Seq.,Ground Shells (a),Ground Config.,Ground Level,Ionized Level,Ionization Energy (b) (eV),Uncertainty (c) (eV),,,,,,,,,,,
80,Hg XXXIII,Hg,XXXIII,32,Mercury,Cd,[Kr].4d10.4f2,4f2,3H<4>,4f 2F*<5/2>,1220,60,,,,,,,,,,,
80,Hg XXXIV,Hg,XXXIV,33,Mercury,Ag,[Kr].4d10.4f,4f,2F*<5/2>,4d10 1S<0>,1280,60,,,,,,,,,,,
80,Hg XXXV,Hg,XXXV,34,Mercury,Pd,[Kr].4d10,4d10,1S0,4d9 2D<5/2>,1549,5,,,,,,,,,,,
80,Hg XXXVI,Hg,XXXVI,35,Mercury,Rh,[Kr].4d9,4d9,2D<5/2>,4d8 3F<4>,1603,5,,,,,,,,,,,
80,Hg XXXVII,Hg,XXXVII,36,Mercury,Ru,[Kr].4d8,4d8,3F<4>,4d7 4F<9/2>,1661,5,,,,,,,,,,,
80,Hg XXXVIII,Hg,XXXVIII,37,Mercury,Tc,[Kr].4d7,4d7,4F<9/2>,4d6 5D<4>,1723,4,,,,,,,,,,,
80,Hg XXXIX,Hg,XXXIX,38,Mercury,Mo,[Kr].4d6,4d6,5D<4>,"4d-4.4d+ (0,5/2)<5/2>",1780,4,,,,,,,,,,,
80,Hg XL,Hg,XL,39,Mercury,Nb,[Kr].4d5,4d-4.4d+,"(0,5/2)<5/2>",4d4 5D<0>,1839,4,,,,,,,,,,,
80,Hg XLI,Hg,XLI,40,Mercury,Zr,[Kr].4d4,4d4,5D0,4d3 4F<3/2>,1928,4,,,,,,,,,,,
80,Hg XLII,Hg,XLII,41,Mercury,Y,[Kr].4d3,4d3,4F<3/2>,4d2 3F<2>,1989,4,,,,,,,,,,,
80,Hg XLIII,Hg,XLIII,42,Mercury,Sr,[Kr].4d2,4d2,3F<2>,4d 2D<3/2>,2052,4,,,,,,,,,,,
80,Hg XLIV,Hg,XLIV,43,Mercury,Rb,[Kr].4d,4d,2D<3/2>,4p6 1S<0>,2113,4,,,,,,,,,,,
80,Hg XLV,Hg,XLV,44,Mercury,Kr,[Ar].3d10.4s2.4p6,4p6,1S0,4p5 2P*<3/2>,2354,4,,,,,,,,,,,
80,Hg XLVI,Hg,XLVI,45,Mercury,Br,[Ar].3d10.4s2.4p5,4p5,2P*<3/2>,4p4 3P<2>,2412,4,,,,,,,,,,,
80,Hg XLVII,Hg,XLVII,46,Mercury,Se,[Ar].3d10.4s2.4p4,4p4,3P<2>,"4p-2.4p+ (0,3/2)*<3/2>",2478,4,,,,,,,,,,,
80,Hg XLVIII,Hg,XLVIII,47,Mercury,As,[Ar].3d10.4s2.4p3,4p-2.4p+,"(0,3/2)*<3/2>",4p2 3P<0>,2539,4,,,,,,,,,,,
80,Hg XLIX,Hg,XLIX,48,Mercury,Ge,[Ar].3d10.4s2.4p2,4p2,3P0,4p 2P*<1/2>,2745,4,,,,,,,,,,,
80,Hg L,Hg,L,49,Mercury,Ga,[Ar].3d10.4s2.4p,4p,2P*<1/2>,4s2 1S<0>,2815,4,,,,,,,,,,,
80,Hg LI,Hg,LI,50,Mercury,Zn,[Ar].3d10.4s2,4s2,1S0,4s 2S<1/2>,2981,4,,,,,,,,,,,
80,Hg LII,Hg,LII,51,Mercury,Cu,[Ar].3d10.4s,4s,2S<1/2>,3d10 1S<0>,3049.9,1.5,,,,,,,,,,,
80,Hg LIII,Hg,LIII,52,Mercury,Ni,[Ar].3d10,3d10,1S0,3d9 2D<5/2>,5055,4,,,,,,,,,,,
80,Hg LIV,Hg,LIV,53,Mercury,Co,[Ar].3d9,3d9,2D<5/2>,3d8 3F<4>,5191,5,,,,,,,,,,,
80,Hg LV,Hg,LV,54,Mercury,Fe,[Ar].3d8,3d8,3F<4>,3d7 4F<9/2>,5335,5,,,,,,,,,,,
80,Hg LVI,Hg,LVI,55,Mercury,Mn,[Ar].3d7,3d7,4F<9/2>,"3d-4.3d+2 (0,4)<4>",5490,5,,,,,,,,,,,
80,Hg LVII,Hg,LVII,56,Mercury,Cr,[Ar].3d6,3d-4.3d+2,"(0,4)<4>","3d-4.3d+ (0,5/2)<5/2>",5636,5,,,,,,,,,,,
80,Hg LVIII,Hg,LVIII,57,Mercury,V,[Ar].3d5,3d-4.3d+,"(0,5/2)<5/2>",3d4 5D<0>,5780,6,,,,,,,,,,,
80,Hg LIX,Hg,LIX,58,Mercury,Ti,[Ar].3d4,3d4,5D0,3d3 4F<3/2>,6041,6,,,,,,,,,,,
80,Hg LX,Hg,LX,59,Mercury,Sc,[Ar].3d3,3d3,4F<3/2>,3d2 3F<2>,6192,7,,,,,,,,,,,
80,Hg LXI,Hg,LXI,60,Mercury,Ca,[Ar].3d2,3d2,3F<2>,3d 2D<3/2>,6356,10,,,,,,,,,,,
80,Hg LXII,Hg,LXII,61,Mercury,K,[Ar].3d,3d,2D<3/2>,3p6 1S<0>,6508,12,,,,,,,,,,,
80,Hg LXIII,Hg,LXIII,62,Mercury,Ar,[Ne].3s2.3p6,3p6,1S0,3p5 2P*<3/2>,6933,15,,,,,,,,,,,
80,Hg LXIV,Hg,LXIV,63,Mercury,Cl,[Ne].3s2.3p5,3p5,2P*<3/2>,3p4 3P<2>,7066,19,,,,,,,,,,,
80,Hg LXV,Hg,LXV,64,Mercury,S,[Ne].3s2.3p4,3p4,3P<2>,3p3 2P*<3/2>,7211,24,,,,,,,,,,,
80,Hg LXVI,Hg,LXVI,65,Mercury,P,[Ne].3s2.3p3,3p3,2P*<3/2>,3p2 3P<0>,7350,30,,,,,,,,,,,
80,Hg LXVII,Hg,LXVII,66,Mercury,Si,[Ne].3s2.3p2,3p2,3P0,3p 2P*<1/2>,8010,40,,,,,,,,,,,
80,Hg LXVIII,Hg,LXVIII,67,Mercury,Al,[Ne].3s2.3p,3p,2P*<1/2>,3s2 1S<0>,8160,40,,,,,,,,,,,
80,Hg LXIX,Hg,LXIX,68,Mercury,Mg,[Ne].3s2,3s2,1S0,3s 2S<1/2>,8470,50,,,,,,,,,,,
80,Hg LXX,Hg,LXX,69,Mercury,Na,[Ne].3s,3s,2S<1/2>,2p6 1S<0>,8620,50,,,,,,,,,,,
80,Hg LXXI,Hg,LXXI,70,Mercury,Ne,1s2.2s2.2p6,2p6,1S0,2p5 2P*<3/2>,18550,60,,,,,,,,,,,
80,Hg LXXII,Hg,LXXII,71,Mercury,F,1s2.2s2.2p5,2p5,2P*<3/2>,2p4 3P<2>,18910,60,,,,,,,,,,,
80,Hg LXXIII,Hg,LXXIII,72,Mercury,O,1s2.2s2.2p4,2p4,3P<2>,"2p2<1/2>.2p<3/2> (0,3/2)*<3/2>",19310,70,,,,,,,,,,,
80,Hg LXXIV,Hg,LXXIV,73,Mercury,N,1s2.2s2.2p3,2p2<1/2>.2p<3/2>,"(0,3/2)*<3/2>",2p2 3P<0>,19680,90,,,,,,,,,,,
80,Hg LXXV,Hg,LXXV,74,Mercury,C,1s2.2s2.2p2,2p2,3P0,2p 2P*<1/2>,22120,90,,,,,,,,,,,
80,Hg LXXVI,Hg,LXXVI,75,Mercury,B,1s2.2s2.2p,2p,2P*<1/2>,2s2 1S<0>,22580,100,,,,,,,,,,,
80,Hg LXXVII,Hg,LXXVII,76,Mercury,Be,1s2.2s2,2s2,1S0,2s 2S<1/2>,23170,110,,,,,,,,,,,
80,Hg LXXVIII,Hg,LXXVIII,77,Mercury,Li,1s2.2s,1s2.2s,2S<1/2>,1s2 1S<0>,23544.1,0.3,,,,,,,,,,,
80,Hg LXXIX,Hg,LXXIX,78,Mercury,He,1s2,1s2,1S0,1s 2S<1/2>,94124.7,0.3,,,,,,,,,,,
80,Hg LXXX,Hg,LXXX,79,Mercury,H,1s,1s,2S<1/2>,,95898.19,0.22,,,,,,,,,,,
81,Tl I,Tl,I,0,Thallium,Tl,[Hg].6p,6s2.6p,2P*<1/2>,6s2 1S<0>,6.1082873,0.0000012,,,,,,,,,,,
81,Tl II,Tl,II,1,Thallium,Hg,[Xe].4f14.5d10.6s2,5d10.6s2,1S0,6s 2S<1/2>,20.4283,0.0006,,,,,,,,,,,
81,Tl III,Tl,III,2,Thallium,Au,[Xe].4f14.5d10.6s,5d10.6s,2S<1/2>,5d10 1S<0>,29.852,0.0006,,,,,,,,,,,
81,Tl IV,Tl,IV,3,Thallium,Pt,[Xe].4f14.5d10,5d10,1S0,5d9 2D<5/2>,51.14,0.04,,,,,,,,,,,
81,Tl V,Tl,V,4,Thallium,Ir,[Xe].4f14.5d9,5d9,2D<5/2>,5d8 3F<4>,62.6,0.4,,,,,,,,,,,
81,Tl VI,Tl,VI,5,Thallium,Os,[Xe].4f14.5d8,5d8,3F<4>,5d7 4F<9/2>,80,2,,,,,,,,,,,
81,Tl VII,Tl,VII,6,Thallium,Re,[Xe].4f14.5d7,5d7,4F<9/2>,5d6 5D<4>,97.9,2,,,,,,,,,,,
81,Tl VIII,Tl,VIII,7,Thallium,W,[Xe].4f14.5d6,5d6,5D<4>,5d5 6S<5/2>,116,2.1,,,,,,,,,,,
81,Tl IX,Tl,IX,8,Thallium,Ta,[Xe].4f14.5d5,5d5,6S<5/2>,5d4 5D<0>,135,2.2,,,,,,,,,,,
81,Tl X,Tl,X,9,Thallium,Hf,[Xe].4f14.5d4,5d4,5D0,5d3 4F<3/2>,158,2.2,,,,,,,,,,,
81,Tl XI,Tl,XI,10,Thallium,Lu,[Xe].4f14.5d3,5d3,4F<3/2>,5d2 3F<2>,177,2.4,,,,,,,,,,,
81,Tl XII,Tl,XII,11,Thallium,Yb,[Xe].4f14.5d2,5d2,3F<2>,5d 2D<3/2>,198,2.5,,,,,,,,,,,
81,Tl XIII,Tl,XIII,12,Thallium,Tm,[Xe].4f14.5d,5d,2D<3/2>,4f14 1S<0>,218.3,2,,,,,,,,,,,
81,Tl XIV,Tl,XIV,13,Thallium,Er,[Xe].4f14,4f14,1S0,4f14.5p5 2P*<3/2>,306.9,1.4,,,,,,,,,,,
81,Tl XV,Tl,XV,14,Thallium,Ho,[Cd].4f14.5p5,4f14.5p5,2P*<3/2>,4f14.5p4 3P<2>,340,17,,,,,,,,,,,
81,Tl XVI,Tl,XVI,15,Thallium,Dy,[Cd].4f14.5p4,4f14.5p4,3P<2>,4f14.5p3 2P*<3/2>,366,19,,,,,,,,,,,
81,Tl XVII,Tl,XVII,16,Thallium,Tb,[Cd].4f14.5p3,4f14.5p3,2P*<3/2>,4f14.5p2 3P<0>,392,20,,,,,,,,,,,
81,Tl XVIII,Tl,XVIII,17,Thallium,Gd,[Cd].4f14.5p2,4f14.5p2,3P0,4f14.5p 2P*<1/2>,439,22,,,,,,,,,,,
81,Tl XIX,Tl,XIX,18,Thallium,Eu,[Cd].4f14.5p,4f14.5p,2P*<1/2>,4f14 1S<0>,467,24,,,,,,,,,,,
81,Tl XX,Tl,XX,19,Thallium,Sm,[Cd].4f14,4f14,1S0,4f13.5s2 2F*<7/2>,520,30,,,,,,,,,,,
81,Tl XXI,Tl,XXI,20,Thallium,Pm,[Cd].4f13,4f13.5s2,2F*<7/2>,4f13.5s*,570,30,,,,,,,,,,,
81,Tl XXII,Tl,XXII,21,Thallium,Nd,[Kr].4d10.4f13.5s,4f13.5s,*,4f13 2F*<7/2>,600,30,,,,,,,,,,,
81,Tl XXIII,Tl,XXIII,22,Thallium,Pr,[Kr].4d10.4f13,4f13,2F*<7/2>,4f12,640,30,,,,,,,,,,,
81,Tl XXIV,Tl,XXIV,23,Thallium,Ce,[Kr].4d10.4f12,4f12,,4f11 4I*<15/2>,700,30,,,,,,,,,,,
81,Tl XXV,Tl,XXV,24,Thallium,La,[Kr].4d10.4f11,4f11,4I*<15/2>,4f10 5I<8>,760,40,,,,,,,,,,,
81,Tl XXVI,Tl,XXVI,25,Thallium,Ba,[Kr].4d10.4f10,4f10,5I<8>,4f9 6H*<15/2>,820,40,,,,,,,,,,,
81,Tl XXVII,Tl,XXVII,26,Thallium,Cs,[Kr].4d10.4f9,4f9,6H*<15/2>,4f8 7F<6>,880,40,,,,,,,,,,,
81,Tl XXVIII,Tl,XXVIII,27,Thallium,Xe,[Kr].4d10.4f8,4f8,7F<6>,4f7 8S*<7/2>,930,50,,,,,,,,,,,
81,Tl XXIX,Tl,XXIX,28,Thallium,I,[Kr].4d10.4f7,4f7,8S*<7/2>,4f6 7F<0>,990,50,,,,,,,,,,,
81,Tl XXX,Tl,XXX,29,Thallium,Te,[Kr].4d10.4f6,4f6,7F0,4f5 6H*<5/2>,1060,50,,,,,,,,,,,
81,Tl XXXI,Tl,XXXI,30,Thallium,Sb,[Kr].4d10.4f5,4f5,6H*<5/2>,4f4 5I<4>,1110,60,,,,,,,,,,,
81,Tl XXXII,Tl,XXXII,31,Thallium,Sn,[Kr].4d10.4f4,4f4,5I<4>,4f3 4I*<9/2>,1170,60,,,,,,,,,,,
81,Tl XXXIII,Tl,XXXIII,32,Thallium,In,[Kr].4d10.4f3,4f3,4I*<9/2>,4f2 3H<4>,1230,60,,,,,,,,,,,
81,Tl XXXIV,Tl,XXXIV,33,Thallium,Cd,[Kr].4d10.4f2,4f2,3H<4>,4f 2F*<5/2>,1290,60,,,,,,,,,,,
81,Tl XXXV,Tl,XXXV,34,Thallium,Ag,[Kr].4d10.4f,4f,2F*<5/2>,4d10 1S<0>,1350,60,,,,,,,,,,,
81,Tl XXXVI,Tl,XXXVI,35,Thallium,Pd,[Kr].4d10,4d10,1S0,4d9 2D<5/2>,1625,5,,,,,,,,,,,
81,Tl XXXVII,Tl,XXXVII,36,Thallium,Rh,[Kr].4d9,4d9,2D<5/2>,4d8 3F<4>,1681,5,,,,,,,,,,,
81,Tl XXXVIII,Tl,XXXVIII,37,Thallium,Ru,[Kr].4d8,4d8,3F<4>,4d7 4F<9/2>,1740,4,,,,,,,,,,,
81,Tl XXXIX,Tl,XXXIX,38,Thallium,Tc,[Kr].4d7,4d7,4F<9/2>,4d6 5D<4>,1802,4,,,,,,,,,,,
81,Tl XL,Tl,XL,39,Thallium,Mo,[Kr].4d6,4d6,5D<4>,"4d-4.4d+ (0,5/2)<5/2>",1862,4,,,,,,,,,,,
81,Tl XLI,Tl,XLI,40,Thallium,Nb,[Kr].4d5,4d-4.4d+,"(0,5/2)<5/2>",4d4 5D<0>,1920,4,,,,,,,,,,,
81,Tl XLII,Tl,XLII,41,Thallium,Zr,[Kr].4d4,4d4,5D0,4d3 4F<3/2>,2014,4,,,,,,,,,,,
81,Tl XLIII,Tl,XLIII,42,Thallium,Y,[Kr].4d3,4d3,4F<3/2>,4d2 3F<2>,2075,4,,,,,,,,,,,
81,Tl XLIV,Tl,XLIV,43,Thallium,Sr,[Kr].4d2,4d2,3F<2>,4d 2D<3/2>,2140,4,,,,,,,,,,,
81,Tl XLV,Tl,XLV,44,Thallium,Rb,[Kr].4d,4d,2D<3/2>,4p6 1S<0>,2202,4,,,,,,,,,,,
81,Tl XLVI,Tl,XLVI,45,Thallium,Kr,[Ar].3d10.4s2.4p6,4p6,1S0,4p5 2P*<3/2>,2447,4,,,,,,,,,,,
81,Tl XLVII,Tl,XLVII,46,Thallium,Br,[Ar].3d10.4s2.4p5,4p5,2P*<3/2>,4p4 3P<2>,2508,4,,,,,,,,,,,
81,Tl XLVIII,Tl,XLVIII,47,Thallium,Se,[Ar].3d10.4s2.4p4,4p4,3P<2>,"4p-2.4p+ (0,3/2)*<3/2>",2574,4,,,,,,,,,,,
81,Tl XLIX,Tl,XLIX,48,Thallium,As,[Ar].3d10.4s2.4p3,4p-2.4p+,"(0,3/2)*<3/2>",4p2 3P<0>,2635,4,,,,,,,,,,,
81,Tl L,Tl,L,49,Thallium,Ge,[Ar].3d10.4s2.4p2,4p2,3P0,4p 2P*<1/2>,2854,4,,,,,,,,,,,
81,Tl LI,Tl,LI,50,Thallium,Ga,[Ar].3d10.4s2.4p,4p,2P*<1/2>,4s2 1S<0>,2925,4,,,,,,,,,,,
81,Tl LII,Tl,LII,51,Thallium,Zn,[Ar].3d10.4s2,4s2,1S0,4s 2S<1/2>,3094,4,,,,,,,,,,,
81,Tl LIII,Tl,LIII,52,Thallium,Cu,[Ar].3d10.4s,4s,2S<1/2>,3d10 1S<0>,3164.7,1.9,,,,,,,,,,,
81,Tl LIV,Tl,LIV,53,Thallium,Ni,[Ar].3d10,3d10,1S0,3d9 2D<5/2>,5234,5,,,,,,,,,,,
81,Tl LV,Tl,LV,54,Thallium,Co,[Ar].3d9,3d9,2D<5/2>,3d8 3F<4>,5371,5,,,,,,,,,,,
81,Tl LVI,Tl,LVI,55,Thallium,Fe,[Ar].3d8,3d8,3F<4>,3d7 4F<9/2>,5518,5,,,,,,,,,,,
81,Tl LVII,Tl,LVII,56,Thallium,Mn,[Ar].3d7,3d7,4F<9/2>,"3d-4.3d+2 (0,4)<4>",5674,5,,,,,,,,,,,
81,Tl LVIII,Tl,LVIII,57,Thallium,Cr,[Ar].3d6,3d-4.3d+2,"(0,4)<4>","3d-4.3d+ (0,5/2)<5/2>",5824,6,,,,,,,,,,,
81,Tl LIX,Tl,LIX,58,Thallium,V,[Ar].3d5,3d-4.3d+,"(0,5/2)<5/2>",3d4 5D<0>,5969,6,,,,,,,,,,,
81,Tl LX,Tl,LX,59,Thallium,Ti,[Ar].3d4,3d4,5D0,3d3 4F<3/2>,6241,7,,,,,,,,,,,
81,Tl LXI,Tl,LXI,60,Thallium,Sc,[Ar].3d3,3d3,4F<3/2>,3d2 3F<2>,6392,10,,,,,,,,,,,
81,Tl LXII,Tl,LXII,61,Thallium,Ca,[Ar].3d2,3d2,3F<2>,3d 2D<3/2>,6560,12,,,,,,,,,,,
81,Tl LXIII,Tl,LXIII,62,Thallium,K,[Ar].3d,3d,2D<3/2>,3p6 1S<0>,6714,15,,,,,,,,,,,
81,Tl LXIV,Tl,LXIV,63,Thallium,Ar,[Ne].3s2.3p6,3p6,1S0,3p5 2P*<3/2>,7146,19,,,,,,,,,,,
81,Tl LXV,Tl,LXV,64,Thallium,Cl,[Ne].3s2.3p5,3p5,2P*<3/2>,3p4 3P<2>,7281,24,,,,,,,,,,,
81,Tl LXVI,Tl,LXVI,65,Thallium,S,[Ne].3s2.3p4,3p4,3P<2>,3p3 2P*<3/2>,7430,30,,,,,,,,,,,
81,Tl LXVII,Tl,LXVII,66,Thallium,P,[Ne].3s2.3p3,3p3,2P*<3/2>,3p2 3P<0>,7570,40,,,,,,,,,,,
81,Tl LXVIII,Tl,LXVIII,67,Thallium,Si,[Ne].3s2.3p2,3p2,3P0,3p 2P*<1/2>,8260,40,,,,,,,,,,,
81,Tl LXIX,Tl,LXIX,68,Thallium,Al,[Ne].3s2.3p,3p,2P*<1/2>,3s2 1S<0>,8420,50,,,,,,,,,,,
81,Tl LXX,Tl,LXX,69,Thallium,Mg,[Ne].3s2,3s2,1S0,3s 2S<1/2>,8730,50,,,,,,,,,,,
81,Tl LXXI,Tl,LXXI,70,Thallium,Na,[Ne].3s,3s,2S<1/2>,2p6 1S<0>,8880,60,,,,,,,,,,,
81,Tl LXXII,Tl,LXXII,71,Thallium,Ne,1s2.2s2.2p6,2p6,1S0,2p5 2P*<3/2>,19070,60,,,,,,,,,,,
81,Tl LXXIII,Tl,LXXIII,72,Thallium,F,1s2.2s2.2p5,2p5,2P*<3/2>,2p4 3P<2>,19440,70,,,,,,,,,,,
81,Tl LXXIV,Tl,LXXIV,73,Thallium,O,1s2.2s2.2p4,2p4,3P<2>,"2p2<1/2>.2p<3/2> (0,3/2)*<3/2>",19840,90,,,,,,,,,,,
81,Tl LXXV,Tl,LXXV,74,Thallium,N,1s2.2s2.2p3,2p2<1/2>.2p<3/2>,"(0,3/2)*<3/2>",2p2 3P<0>,20210,90,,,,,,,,,,,
81,Tl LXXVI,Tl,LXXVI,75,Thallium,C,1s2.2s2.2p2,2p2,3P0,2p 2P*<1/2>,22780,100,,,,,,,,,,,
81,Tl LXXVII,Tl,LXXVII,76,Thallium,B,1s2.2s2.2p,2p,2P*<1/2>,2s2 1S<0>,23250,110,,,,,,,,,,,
81,Tl LXXVIII,Tl,LXXVIII,77,Thallium,Be,1s2.2s2,2s2,1S0,2s 2S<1/2>,23850,120,,,,,,,,,,,
81,Tl LXXIX,Tl,LXXIX,78,Thallium,Li,1s2.2s,1s2.2s,2S<1/2>,1s2 1S<0>,24234.1,0.4,,,,,,,,,,,
81,Tl LXXX,Tl,LXXX,79,Thallium,He,1s2,1s2,1S0,1s 2S<1/2>,96783.2,0.3,,,,,,,,,,,
81,Tl LXXXI,Tl,LXXXI,80,Thallium,H,1s,1s,2S<1/2>,,98592.12,0.25,,,,,,,,,,,
82,Pb I,Pb,I,0,Lead,Pb,[Hg].6p2,6s2.6p2,"(1/2,1/2)0",6p 2P*<1/2>,7.4166799,0.0000006,,,,,,,,,,,
82,Pb II,Pb,II,1,Lead,Tl,[Hg].6p,6s2.6p,2P*<1/2>,6s2 1S<0>,15.032499,0.000007,,,,,,,,,,,
82,Pb III,Pb,III,2,Lead,Hg,[Xe].4f14.5d10.6s2,5d10.6s2,1S0,5d10.6s 2S<1/2>,31.9373,0.0006,,,,,,,,,,,
82,Pb IV,Pb,IV,3,Lead,Au,[Xe].4f14.5d10.6s,5d10.6s,2S<1/2>,5d10 1S<0>,42.33256,0.0001,,,,,,,,,,,
82,Pb V,Pb,V,4,Lead,Pt,[Xe].4f14.5d10,5d10,1S0,5d9 2D<5/2>,68.8,0.5,,,,,,,,,,,
82,Pb VI,Pb,VI,5,Lead,Ir,[Xe].4f14.5d9,5d9,2D<5/2>,5d8 3F<4>,82.9,2,,,,,,,,,,,
82,Pb VII,Pb,VII,6,Lead,Os,[Xe].4f14.5d8,5d8,3F<4>,5d7 4F<9/2>,100.1,2,,,,,,,,,,,
82,Pb VIII,Pb,VIII,7,Lead,Re,[Xe].4f14.5d7,5d7,4F<9/2>,5d6 5D<4>,120,2.1,,,,,,,,,,,
82,Pb IX,Pb,IX,8,Lead,W,[Xe].4f14.5d6,5d6,5D<4>,5d5 6S<5/2>,138,2.2,,,,,,,,,,,
82,Pb X,Pb,X,9,Lead,Ta,[Xe].4f14.5d5,5d5,6S<5/2>,5d4 5D<0>,158,2.2,,,,,,,,,,,
82,Pb XI,Pb,XI,10,Lead,Hf,[Xe].4f14.5d4,5d4,5D0,5d3 4F<3/2>,182,2.4,,,,,,,,,,,
82,Pb XII,Pb,XII,11,Lead,Lu,[Xe].4f14.5d3,5d3,4F<3/2>,5d2 3F<2>,203,2.5,,,,,,,,,,,
82,Pb XIII,Pb,XIII,12,Lead,Yb,[Xe].4f14.5d2,5d2,3F<2>,5d 2D<3/2>,224,3,,,,,,,,,,,
82,Pb XIV,Pb,XIV,13,Lead,Tm,[Xe].4f14.5d,5d,2D<3/2>,4f14 1S<0>,245.1,2.2,,,,,,,,,,,
82,Pb XV,Pb,XV,14,Lead,Er,[Xe].4f14,4f14,1S0,4f14.5p5 2P*<3/2>,338.1,1.5,,,,,,,,,,,
82,Pb XVI,Pb,XVI,15,Lead,Ho,[Cd].4f14.5p5,4f14.5p5,2P*<3/2>,4f14.5p4 3P<2>,374,19,,,,,,,,,,,
82,Pb XVII,Pb,XVII,16,Lead,Dy,[Cd].4f14.5p4,4f14.5p4,3P<2>,4f14.5p3 2P*<3/2>,401,20,,,,,,,,,,,
82,Pb XVIII,Pb,XVIII,17,Lead,Tb,[Cd].4f14.5p3,4f14.5p3,2P*<3/2>,4f14.5p2 3P<0>,427,21,,,,,,,,,,,
82,Pb XIX,Pb,XIX,18,Lead,Gd,[Cd].4f14.5p2,4f14.5p2,3P0,4f14.5p 2P*<1/2>,478,24,,,,,,,,,,,
82,Pb XX,Pb,XX,19,Lead,Eu,[Cd].4f14.5p,4f14.5p,2P*<1/2>,4f14 1S<0>,507,25,,,,,,,,,,,
82,Pb XXI,Pb,XXI,20,Lead,Sm,[Cd].4f14,4f14,1S0,4f13.5s2 2F*<7/2>,570,30,,,,,,,,,,,
82,Pb XXII,Pb,XXII,21,Lead,Pm,[Cd].4f13,4f13.5s2,2F*<7/2>,4f13.5s*,610,30,,,,,,,,,,,
82,Pb XXIII,Pb,XXIII,22,Lead,Nd,[Kr].4d10.4f13.5s,4f13.5s,*,4f13 2F*<7/2>,650,30,,,,,,,,,,,
82,Pb XXIV,Pb,XXIV,23,Lead,Pr,[Kr].4d10.4f13,4f13,2F*<7/2>,4f12,690,30,,,,,,,,,,,
82,Pb XXV,Pb,XXV,24,Lead,Ce,[Kr].4d10.4f12,4f12,,4f11 4I*<15/2>,750,40,,,,,,,,,,,
82,Pb XXVI,Pb,XXVI,25,Lead,La,[Kr].4d10.4f11,4f11,4I*<15/2>,4f10 5I<8>,810,40,,,,,,,,,,,
82,Pb XXVII,Pb,XXVII,26,Lead,Ba,[Kr].4d10.4f10,4f10,5I<8>,4f9 6H*<15/2>,870,40,,,,,,,,,,,
82,Pb XXVIII,Pb,XXVIII,27,Lead,Cs,[Kr].4d10.4f9,4f9,6H*<15/2>,4f8 7F<6>,930,50,,,,,,,,,,,
82,Pb XXIX,Pb,XXIX,28,Lead,Xe,[Kr].4d10.4f8,4f8,7F<6>,4f7 8S*<7/2>,990,50,,,,,,,,,,,
82,Pb XXX,Pb,XXX,29,Lead,I,[Kr].4d10.4f7,4f7,8S*<7/2>,4f6 7F<0>,1050,50,,,,,,,,,,,
82,Pb XXXI,Pb,XXXI,30,Lead,Te,[Kr].4d10.4f6,4f6,7F0,4f5 6H*<5/2>,1120,60,,,,,,,,,,,
82,Pb XXXII,Pb,XXXII,31,Lead,Sb,[Kr].4d10.4f5,4f5,6H*<5/2>,4f4 5I<4>,1180,60,,,,,,,,,,,
82,Pb XXXIII,Pb,XXXIII,32,Lead,Sn,[Kr].4d10.4f4,4f4,5I<4>,4f3 4I*<9/2>,1240,60,,,,,,,,,,,
82,Pb XXXIV,Pb,XXXIV,33,Lead,In,[Kr].4d10.4f3,4f3,4I*<9/2>,4f2 3H<4>,1300,60,,,,,,,,,,,
82,Pb XXXV,Pb,XXXV,34,Lead,Cd,[Kr].4d10.4f2,4f2,3H<4>,4f 2F*<5/2>,1360,60,,,,,,,,,,,
82,Pb XXXVI,Pb,XXXVI,35,Lead,Ag,[Kr].4d10.4f,4f,2F*<5/2>,4d10 1S<0>,1430,70,,,,,,,,,,,
82,Pb XXXVII,Pb,XXXVII,36,Lead,Pd,[Kr].4d10,4d10,1S0,4d9 2D<5/2>,1704,5,,,,,,,,,,,
82,Pb XXXVIII,Pb,XXXVIII,37,Lead,Rh,[Kr].4d9,4d9,2D<5/2>,4d8 3F<4>,1760,4,,,,,,,,,,,
82,Pb XXXIX,Pb,XXXIX,38,Lead,Ru,[Kr].4d8,4d8,3F<4>,4d7 4F<9/2>,1819,4,,,,,,,,,,,
82,Pb XL,Pb,XL,39,Lead,Tc,[Kr].4d7,4d7,4F<9/2>,4d6 5D<4>,1884,4,,,,,,,,,,,
82,Pb XLI,Pb,XLI,40,Lead,Mo,[Kr].4d6,4d6,5D<4>,"4d-4.4d+ (0,5/2)<5/2>",1945,4,,,,,,,,,,,
82,Pb XLII,Pb,XLII,41,Lead,Nb,[Kr].4d5,4d-4.4d+,"(0,5/2)<5/2>",4d4 5D<0>,2004,4,,,,,,,,,,,
82,Pb XLIII,Pb,XLIII,42,Lead,Zr,[Kr].4d4,4d4,5D0,4d3 4F<3/2>,2101,4,,,,,,,,,,,
82,Pb XLIV,Pb,XLIV,43,Lead,Y,[Kr].4d3,4d3,4F<3/2>,4d2 3F<2>,2163,4,,,,,,,,,,,
82,Pb XLV,Pb,XLV,44,Lead,Sr,[Kr].4d2,4d2,3F<2>,4d 2D<3/2>,2230,4,,,,,,,,,,,
82,Pb XLVI,Pb,XLVI,45,Lead,Rb,[Kr].4d,4d,2D<3/2>,4p6 1S<0>,2292,4,,,,,,,,,,,
82,Pb XLVII,Pb,XLVII,46,Lead,Kr,[Ar].3d10.4s2.4p6,4p6,1S0,4p5 2P*<3/2>,2543,4,,,,,,,,,,,
82,Pb XLVIII,Pb,XLVIII,47,Lead,Br,[Ar].3d10.4s2.4p5,4p5,2P*<3/2>,4p4 3P<2>,2605,4,,,,,,,,,,,
82,Pb XLIX,Pb,XLIX,48,Lead,Se,[Ar].3d10.4s2.4p4,4p4,3P<2>,"4p-2.4p+ (0,3/2)*<3/2>",2671,4,,,,,,,,,,,
82,Pb L,Pb,L,49,Lead,As,[Ar].3d10.4s2.4p3,4p-2.4p+,"(0,3/2)*<3/2>",4p2 3P<0>,2735,4,,,,,,,,,,,
82,Pb LI,Pb,LI,50,Lead,Ge,[Ar].3d10.4s2.4p2,4p2,3P0,4p 2P*<1/2>,2965,4,,,,,,,,,,,
82,Pb LII,Pb,LII,51,Lead,Ga,[Ar].3d10.4s2.4p,4p,2P*<1/2>,4s2 1S<0>,3036,4,,,,,,,,,,,
82,Pb LIII,Pb,LIII,52,Lead,Zn,[Ar].3d10.4s2,4s2,1S0,4s 2S<1/2>,3211,4,,,,,,,,,,,
82,Pb LIV,Pb,LIV,53,Lead,Cu,[Ar].3d10.4s,4s,2S<1/2>,3d10 1S<0>,3282.1,2,,,,,,,,,,,
82,Pb LV,Pb,LV,54,Lead,Ni,[Ar].3d10,3d10,1S0,3d9 2D<5/2>,5414,5,,,,,,,,,,,
82,Pb LVI,Pb,LVI,55,Lead,Co,[Ar].3d9,3d9,2D<5/2>,3d8 3F<4>,5555,5,,,,,,,,,,,
82,Pb LVII,Pb,LVII,56,Lead,Fe,[Ar].3d8,3d8,3F<4>,3d7 4F<9/2>,5703,5,,,,,,,,,,,
82,Pb LVIII,Pb,LVIII,57,Lead,Mn,[Ar].3d7,3d7,4F<9/2>,"3d-4.3d+2 (0,4)<4>",5862,6,,,,,,,,,,,
82,Pb LIX,Pb,LIX,58,Lead,Cr,[Ar].3d6,3d-4.3d+2,"(0,4)<4>","3d-4.3d+ (0,5/2)<5/2>",6015,6,,,,,,,,,,,
82,Pb LX,Pb,LX,59,Lead,V,[Ar].3d5,3d-4.3d+,"(0,5/2)<5/2>",3d4 5D<0>,6162,7,,,,,,,,,,,
82,Pb LXI,Pb,LXI,60,Lead,Ti,[Ar].3d4,3d4,5D0,3d3 4F<3/2>,6442,10,,,,,,,,,,,
82,Pb LXII,Pb,LXII,61,Lead,Sc,[Ar].3d3,3d3,4F<3/2>,3d2 3F<2>,6597,12,,,,,,,,,,,
82,Pb LXIII,Pb,LXIII,62,Lead,Ca,[Ar].3d2,3d2,3F<2>,3d 2D<3/2>,6767,15,,,,,,,,,,,
82,Pb LXIV,Pb,LXIV,63,Lead,K,[Ar].3d,3d,2D<3/2>,3p6 1S<0>,6924,19,,,,,,,,,,,
82,Pb LXV,Pb,LXV,64,Lead,Ar,[Ne].3s2.3p6,3p6,1S0,3p5 2P*<3/2>,7362,24,,,,,,,,,,,
82,Pb LXVI,Pb,LXVI,65,Lead,Cl,[Ne].3s2.3p5,3p5,2P*<3/2>,3p4 3P<2>,7500,30,,,,,,,,,,,
82,Pb LXVII,Pb,LXVII,66,Lead,S,[Ne].3s2.3p4,3p4,3P<2>,3p3 2P*<3/2>,7650,40,,,,,,,,,,,
82,Pb LXVIII,Pb,LXVIII,67,Lead,P,[Ne].3s2.3p3,3p3,2P*<3/2>,3p2 3P<0>,7790,40,,,,,,,,,,,
82,Pb LXIX,Pb,LXIX,68,Lead,Si,[Ne].3s2.3p2,3p2,3P0,3p 2P*<1/2>,8520,50,,,,,,,,,,,
82,Pb LXX,Pb,LXX,69,Lead,Al,[Ne].3s2.3p,3p,2P*<1/2>,3s2 1S<0>,8680,50,,,,,,,,,,,
82,Pb LXXI,Pb,LXXI,70,Lead,Mg,[Ne].3s2,3s2,1S0,3s 2S<1/2>,9000,60,,,,,,,,,,,
82,Pb LXXII,Pb,LXXII,71,Lead,Na,[Ne].3s,3s,2S<1/2>,2p6 1S<0>,9150,60,,,,,,,,,,,
82,Pb LXXIII,Pb,LXXIII,72,Lead,Ne,1s2.2s2.2p6,2p6,1S0,2p5 2P*<3/2>,19590,70,,,,,,,,,,,
82,Pb LXXIV,Pb,LXXIV,73,Lead,F,1s2.2s2.2p5,2p5,2P*<3/2>,2p4 3P<2>,19970,90,,,,,,,,,,,
82,Pb LXXV,Pb,LXXV,74,Lead,O,1s2.2s2.2p4,2p4,3P<2>,"2p2<1/2>.2p<3/2> (0,3/2)*<3/2>",20380,90,,,,,,,,,,,
82,Pb LXXVI,Pb,LXXVI,75,Lead,N,1s2.2s2.2p3,2p2<1/2>.2p<3/2>,"(0,3/2)*<3/2>",2p2 3P<0>,20750,100,,,,,,,,,,,
82,Pb LXXVII,Pb,LXXVII,76,Lead,C,1s2.2s2.2p2,2p2,3P0,2p 2P*<1/2>,23460,110,,,,,,,,,,,
82,Pb LXXVIII,Pb,LXXVIII,77,Lead,B,1s2.2s2.2p,2p,2P*<1/2>,2s2 1S<0>,23940,120,,,,,,,,,,,
82,Pb LXXIX,Pb,LXXIX,78,Lead,Be,1s2.2s2,2s2,1S0,2s 2S<1/2>,24550,120,,,,,,,,,,,
82,Pb LXXX,Pb,LXXX,79,Lead,Li,1s2.2s,1s2.2s,2S<1/2>,1s2 1S<0>,24938.2,0.4,,,,,,,,,,,
82,Pb LXXXI,Pb,LXXXI,80,Lead,He,1s2,1s2,1S0,1s 2S<1/2>,99491.8,0.3,,,,,,,,,,,
82,Pb LXXXII,Pb,LXXXII,81,Lead,H,1s,1s,2S<1/2>,,101336.7,0.3,,,,,,,,,,,
83,Bi I,Bi,I,0,Bismuth,Bi,[Hg].6p3,6p3,4S*<3/2>,6p2 3P<0>,7.285516,0.000006,,,,,,,,,,,
83,Bi II,Bi,II,1,Bismuth,Pb,[Hg].6p2,6s2.6p2,3P0,6s2.6p 2P*<1/2>,16.703,0.004,,,,,,,,,,,
83,Bi III,Bi,III,2,Bismuth,Tl,[Hg].6p,6s2.6p,2P*<1/2>,6s2 1S<0>,25.57075,0.00017,,,,,,,,,,,
83,Bi IV,Bi,IV,3,Bismuth,Hg,[Xe].4f14.5d10.6s2,5d10.6s2,1S0,6s 2S<1/2>,45.37,0.06,,,,,,,,,,,
83,Bi V,Bi,V,4,Bismuth,Au,[Xe].4f14.5d10.6s,5d10.6s,2S<1/2>,5d10 1S<0>,54.856,0.025,,,,,,,,,,,
83,Bi VI,Bi,VI,5,Bismuth,Pt,[Xe].4f14.5d10,5d10,1S0,5d9 2D<5/2>,88.4,0.7,,,,,,,,,,,
83,Bi VII,Bi,VII,6,Bismuth,Ir,[Xe].4f14.5d9,5d9,2D<5/2>,5d8 3F<4>,103,2,,,,,,,,,,,
83,Bi VIII,Bi,VIII,7,Bismuth,Os,[Xe].4f14.5d8,5d8,3F<4>,5d7 4F<9/2>,122,2.1,,,,,,,,,,,
83,Bi IX,Bi,IX,8,Bismuth,Re,[Xe].4f14.5d7,5d7,4F<9/2>,5d6 5D<4>,143,2.2,,,,,,,,,,,
83,Bi X,Bi,X,9,Bismuth,W,[Xe].4f14.5d6,5d6,5D<4>,5d5 6S<5/2>,161.1,2.2,,,,,,,,,,,
83,Bi XI,Bi,XI,10,Bismuth,Ta,[Xe].4f14.5d5,5d5,6S<5/2>,5d4 5D<0>,183,2.4,,,,,,,,,,,
83,Bi XII,Bi,XII,11,Bismuth,Hf,[Xe].4f14.5d4,5d4,5D0,5d3 4F<3/2>,208,2.5,,,,,,,,,,,
83,Bi XIII,Bi,XIII,12,Bismuth,Lu,[Xe].4f14.5d3,5d3,4F<3/2>,5d2 3F<2>,229,3,,,,,,,,,,,
83,Bi XIV,Bi,XIV,13,Bismuth,Yb,[Xe].4f14.5d2,5d2,3F<2>,5d 2D<3/2>,252,3,,,,,,,,,,,
83,Bi XV,Bi,XV,14,Bismuth,Tm,[Xe].4f14.5d,5d,2D<3/2>,4f14 1S<0>,272.6,2.5,,,,,,,,,,,
83,Bi XVI,Bi,XVI,15,Bismuth,Er,[Xe].4f14,4f14,1S0,4f14.5p5 2P*<3/2>,370.2,1.6,,,,,,,,,,,