At. num,Sp. Name,Element,Valence,Ion Charge,El. Name,Isoel. Seq.,Ground Shells (a),Ground Config.,Ground Level,Ionized Level,Ionization Energy (b) (eV),Uncertainty (c) (eV),,,,,,,,,,,
102,No XLVI,No,XLVI,45,Nobelium,La,[Kr].4d10.4f11,4f11,4I*<15/2>,4f10 5I<8>,2200,110,,,,,,,,,,,
102,No XLVII,No,XLVII,46,Nobelium,Ba,[Kr].4d10.4f10,4f10,5I<8>,4f9 6H*<15/2>,2290,110,,,,,,,,,,,
102,No XLVIII,No,XLVIII,47,Nobelium,Cs,[Kr].4d10.4f9,4f9,6H*<15/2>,4f8 7F<6>,2380,120,,,,,,,,,,,
102,No XLIX,No,XLIX,48,Nobelium,Xe,[Kr].4d10.4f8,4f8,7F<6>,4f7 8S*<7/2>,2470,120,,,,,,,,,,,
102,No L,No,L,49,Nobelium,I,[Kr].4d10.4f7,4f7,8S*<7/2>,4f6 7F<0>,2570,120,,,,,,,,,,,
102,No LI,No,LI,50,Nobelium,Te,[Kr].4d10.4f6,4f6,7F0,4f5 6H*<5/2>,2680,140,,,,,,,,,,,
102,No LII,No,LII,51,Nobelium,Sb,[Kr].4d10.4f5,4f5,6H*<5/2>,4f4 5I<4>,2760,140,,,,,,,,,,,
102,No LIII,No,LIII,52,Nobelium,Sn,[Kr].4d10.4f4,4f4,5I<4>,4f3 4I*<9/2>,2860,150,,,,,,,,,,,
102,No LIV,No,LIV,53,Nobelium,In,[Kr].4d10.4f3,4f3,4I*<9/2>,4f2 3H<4>,2950,150,,,,,,,,,,,
102,No LV,No,LV,54,Nobelium,Cd,[Kr].4d10.4f2,4f2,3H<4>,4f 2F*<5/2>,3050,150,,,,,,,,,,,
102,No LVI,No,LVI,55,Nobelium,Ag,[Kr].4d10.4f,4f,2F*<5/2>,4d10 1S<0>,3140,160,,,,,,,,,,,
102,No LVII,No,LVII,56,Nobelium,Pd,[Kr].4d10,4d10,1S0,4d9 2D<5/2>,3627,5,,,,,,,,,,,
102,No LVIII,No,LVIII,57,Nobelium,Rh,[Kr].4d9,4d9,2D<5/2>,4d8 3F<4>,3705,6,,,,,,,,,,,
102,No LIX,No,LIX,58,Nobelium,Ru,[Kr].4d8,4d8,3F<4>,4d7 4F<9/2>,3790,6,,,,,,,,,,,
102,No LX,No,LX,59,Nobelium,Tc,[Kr].4d7,4d7,4F<9/2>,4d6 5D<4>,3878,7,,,,,,,,,,,
102,No LXI,No,LXI,60,Nobelium,Mo,[Kr].4d6,4d6,5D<4>,"4d-4.4d+ (0,5/2)<5/2>",3962,10,,,,,,,,,,,
102,No LXII,No,LXII,61,Nobelium,Nb,[Kr].4d5,4d-4.4d+,"(0,5/2)<5/2>",4d4 5D<0>,4045,12,,,,,,,,,,,
102,No LXIII,No,LXIII,62,Nobelium,Zr,[Kr].4d4,4d4,5D0,4d3 4F<3/2>,4234,15,,,,,,,,,,,
102,No LXIV,No,LXIV,63,Nobelium,Y,[Kr].4d3,4d3,4F<3/2>,4d2 3F<2>,4320,19,,,,,,,,,,,
102,No LXV,No,LXV,64,Nobelium,Sr,[Kr].4d2,4d2,3F<2>,4d 2D<3/2>,4413,24,,,,,,,,,,,
102,No LXVI,No,LXVI,65,Nobelium,Rb,[Kr].4d,4d,2D<3/2>,4p6 1S<0>,4500,30,,,,,,,,,,,
102,No LXVII,No,LXVII,66,Nobelium,Kr,[Ar].3d10.4s2.4p6,4p6,1S0,4p5 2P*<3/2>,4850,40,,,,,,,,,,,
102,No LXVIII,No,LXVIII,67,Nobelium,Br,[Ar].3d10.4s2.4p5,4p5,2P*<3/2>,4p4 3P<2>,4930,40,,,,,,,,,,,
102,No LXIX,No,LXIX,68,Nobelium,Se,[Ar].3d10.4s2.4p4,4p4,3P<2>,"4p-2.4p+ (0,3/2)*<3/2>",5030,50,,,,,,,,,,,
102,No LXX,No,LXX,69,Nobelium,As,[Ar].3d10.4s2.4p3,4p-2.4p+,"(0,3/2)*<3/2>",4p2 3P<0>,5110,50,,,,,,,,,,,
102,No LXXI,No,LXXI,70,Nobelium,Ge,[Ar].3d10.4s2.4p2,4p2,3P0,4p 2P*<1/2>,5750,60,,,,,,,,,,,
102,No LXXII,No,LXXII,71,Nobelium,Ga,[Ar].3d10.4s2.4p,4p,2P*<1/2>,4s2 1S<0>,5850,60,,,,,,,,,,,
102,No LXXIII,No,LXXIII,72,Nobelium,Zn,[Ar].3d10.4s2,4s2,1S0,4s 2S<1/2>,6110,70,,,,,,,,,,,
102,No LXXIV,No,LXXIV,73,Nobelium,Cu,[Ar].3d10.4s,4s,2S<1/2>,3d10 1S<0>,6210,90,,,,,,,,,,,
102,No LXXV,No,LXXV,74,Nobelium,Ni,[Ar].3d10,3d10,1S0,3d9 2D<5/2>,9680,90,,,,,,,,,,,
102,No LXXVI,No,LXXVI,75,Nobelium,Co,[Ar].3d9,3d9,2D<5/2>,3d8 3F<4>,9860,100,,,,,,,,,,,
102,No LXXVII,No,LXXVII,76,Nobelium,Fe,[Ar].3d8,3d8,3F<4>,3d7 4F<9/2>,10060,110,,,,,,,,,,,
102,No LXXVIII,No,LXXVIII,77,Nobelium,Mn,[Ar].3d7,3d7,4F<9/2>,"3d-4.3d+2 (0,4)<4>",10270,120,,,,,,,,,,,
102,No LXXIX,No,LXXIX,78,Nobelium,Cr,[Ar].3d6,3d-4.3d+2,"(0,4)<4>","3d-4.3d+ (0,5/2)<5/2>",10470,120,,,,,,,,,,,
102,No LXXX,No,LXXX,79,Nobelium,V,[Ar].3d5,3d-4.3d+,"(0,5/2)<5/2>",3d4 5D<0>,10660,140,,,,,,,,,,,
102,No LXXXI,No,LXXXI,80,Nobelium,Ti,[Ar].3d4,3d4,5D0,3d3 4F<3/2>,11200,150,,,,,,,,,,,
102,No LXXXII,No,LXXXII,81,Nobelium,Sc,[Ar].3d3,3d3,4F<3/2>,3d2 3F<2>,11410,160,,,,,,,,,,,
102,No LXXXIII,No,LXXXIII,82,Nobelium,Ca,[Ar].3d2,3d2,3F<2>,3d 2D<3/2>,11630,170,,,,,,,,,,,
102,No LXXXIV,No,LXXXIV,83,Nobelium,K,[Ar].3d,3d,2D<3/2>,3p6 1S<0>,11840,190,,,,,,,,,,,
102,No LXXXV,No,LXXXV,84,Nobelium,Ar,[Ne].3s2.3p6,3p6,1S0,3p5 2P*<3/2>,12420,200,,,,,,,,,,,
102,No LXXXVI,No,LXXXVI,85,Nobelium,Cl,[Ne].3s2.3p5,3p5,2P*<3/2>,3p4 3P<2>,12600,220,,,,,,,,,,,
102,No LXXXVII,No,LXXXVII,86,Nobelium,S,[Ne].3s2.3p4,3p4,3P<2>,3p3 2P*<3/2>,12800,240,,,,,,,,,,,
102,No LXXXVIII,No,LXXXVIII,87,Nobelium,P,[Ne].3s2.3p3,3p3,2P*<3/2>,3p2 3P<0>,12980,250,,,,,,,,,,,
102,No LXXXIX,No,LXXXIX,88,Nobelium,Si,[Ne].3s2.3p2,3p2,3P0,3p 2P*<1/2>,15000,300,,,,,,,,,,,
102,No XC,No,XC,89,Nobelium,Al,[Ne].3s2.3p,3p,2P*<1/2>,3s2 1S<0>,15200,300,,,,,,,,,,,
102,No XCI,No,XCI,90,Nobelium,Mg,[Ne].3s2,3s2,1S0,3s 2S<1/2>,15600,300,,,,,,,,,,,
102,No XCII,No,XCII,91,Nobelium,Na,[Ne].3s,3s,2S<1/2>,2p6 1S<0>,15800,300,,,,,,,,,,,
102,No XCIII,No,XCIII,92,Nobelium,Ne,1s2.2s2.2p6,2p6,1S0,2p5 2P*<3/2>,31700,400,,,,,,,,,,,
102,No XCIV,No,XCIV,93,Nobelium,F,1s2.2s2.2p5,2p5,2P*<3/2>,2p4 3P<2>,32200,400,,,,,,,,,,,
102,No XCV,No,XCV,94,Nobelium,O,1s2.2s2.2p4,2p4,3P<2>,"2p2<1/2>.2p<3/2> (0,3/2)*<3/2>",32700,400,,,,,,,,,,,
102,No XCVI,No,XCVI,95,Nobelium,N,1s2.2s2.2p3,2p2<1/2>.2p<3/2>,"(0,3/2)*<3/2>",2p2 3P<0>,33200,400,,,,,,,,,,,
102,No XCVII,No,XCVII,96,Nobelium,C,1s2.2s2.2p2,2p2,3P0,2p 2P*<1/2>,40500,400,,,,,,,,,,,
102,No XCVIII,No,XCVIII,97,Nobelium,B,1s2.2s2.2p,2p,2P*<1/2>,2s2 1S<0>,41200,400,,,,,,,,,,,
102,No XCIX,No,XCIX,98,Nobelium,Be,1s2.2s2,2s2,1S0,2s 2S<1/2>,42100,500,,,,,,,,,,,
102,No C,No,C,99,Nobelium,Li,1s2.2s,1s2.2s,2S<1/2>,1s2 1S<0>,42632,6,,,,,,,,,,,
102,No CI,No,CI,100,Nobelium,He,1s2,1s2,1S0,1s 2S<1/2>,166050,7,,,,,,,,,,,
102,No CII,No,CII,101,Nobelium,H,1s,1s,2S<1/2>,,168804,7,,,,,,,,,,,
103,Lr I,Lr,I,0,Lawrencium,Lr,[Rn].5f14.7s2.7p,7s2.7p,2P*<1/2>,7s2 1S<0>,4.96,0.05,,,,,,,,,,,
103,Lr II,Lr,II,1,Lawrencium,No,[Rn].5f14.7s2,7s2,1S0,5f14.7s 2S<1/2>,14.54,0.04,,,,,,,,,,,
103,Lr III,Lr,III,2,Lawrencium,Md,[Rn].5f14.7s,5f14.7s,2S<1/2>,5f14 1S<0>,21.8,0.04,,,,,,,,,,,
103,Lr IV,Lr,IV,3,Lawrencium,Fm,[Rn].5f14,5f14,1S0,5f13 2F*<7/2>,43.6,0.4,,,,,,,,,,,
103,Lr V,Lr,V,4,Lawrencium,Es,[Rn].5f13,5f13,2F*<7/2>,5f12 3H<6>,56,1.9,,,,,,,,,,,
103,Lr VI,Lr,VI,5,Lawrencium,Cf,[Rn].5f12,5f12,3H<6>,5f11 4I*<15/2>,80,2,,,,,,,,,,,
103,Lr VII,Lr,VII,6,Lawrencium,Bk,[Rn].5f11,5f11,4I*<15/2>,5f10 5I<8>,96,2,,,,,,,,,,,
103,Lr VIII,Lr,VIII,7,Lawrencium,Cm,[Rn].5f10,5f10,5I<8>,5f9 6H*<15/2>,121,2.1,,,,,,,,,,,
103,Lr IX,Lr,IX,8,Lawrencium,Am,[Rn].5f9,5f9,6H*<15/2>,5f8 7F<6>,143,2.2,,,,,,,,,,,
103,Lr X,Lr,X,9,Lawrencium,Pu,[Rn].5f8,5f8,7F<6>,5f7 8S*<7/2>,165,2.2,,,,,,,,,,,
103,Lr XI,Lr,XI,10,Lawrencium,Np,[Rn].5f7,5f7,8S*<7/2>,5f6 7F<0>,197,2.4,,,,,,,,,,,
103,Lr XII,Lr,XII,11,Lawrencium,U,[Rn].5f6,5f6,7F0,5f5 6H*<5/2>,216,2.5,,,,,,,,,,,
103,Lr XIII,Lr,XIII,12,Lawrencium,Pa,[Rn].5f5,5f5,6H*<5/2>,5f4 5I<4>,244,3,,,,,,,,,,,
103,Lr XIV,Lr,XIV,13,Lawrencium,Th,[Rn].5f4,5f4,5I<4>,5f8.6p,269,14,,,,,,,,,,,
103,Lr XV,Lr,XV,14,Lawrencium,Ac,[Hg].5f8.6p,5f8.6p,*,5f8,290,15,,,,,,,,,,,
103,Lr XVI,Lr,XVI,15,Lawrencium,Ra,[Hg].5f8,5f8,,5f7*,322,12,,,,,,,,,,,
103,Lr XVII,Lr,XVII,16,Lawrencium,Fr,[Hg].5f7,5f7,*,5f6,344,17,,,,,,,,,,,
103,Lr XVIII,Lr,XVIII,17,Lawrencium,Rn,[Hg].5f6,5f6,,5f5*,374,19,,,,,,,,,,,
103,Lr XIX,Lr,XIX,18,Lawrencium,At,[Hg].5f5,5f5,*,5f4,403,20,,,,,,,,,,,
103,Lr XX,Lr,XX,19,Lawrencium,Po,[Hg].5f4,5f4,,5f3*,431,21,,,,,,,,,,,
103,Lr XXI,Lr,XXI,20,Lawrencium,Bi,[Hg].5f3,5f3,*,5f2,459,24,,,,,,,,,,,
103,Lr XXII,Lr,XXII,21,Lawrencium,Pb,[Hg].5f2,5f2,,5f 2F*<5/2>,487,25,,,,,,,,,,,
103,Lr XXIII,Lr,XXIII,22,Lawrencium,Tl,[Hg].5f,5f,2F*<5/2>,5f.6s*,510,30,,,,,,,,,,,
103,Lr XXIV,Lr,XXIV,23,Lawrencium,Hg,[Xe].4f14.5d10.5f.6s,5f.6s,*,5f 2F<5/2>*,540,30,,,,,,,,,,,
103,Lr XXV,Lr,XXV,24,Lawrencium,Au,[Xe].4f14.5d10.5f,5f,2F*<5/2>,5d10 1S<0>,560,30,,,,,,,,,,,
103,Lr XXVI,Lr,XXVI,25,Lawrencium,Pt,[Xe].4f14.5d10,5d10,1S0,5d9 2D<5/2>,745,4,,,,,,,,,,,
103,Lr XXVII,Lr,XXVII,26,Lawrencium,Ir,[Xe].4f14.5d9,5d9,2D<5/2>,5d8 3F<4>,779,4,,,,,,,,,,,
103,Lr XXVIII,Lr,XXVIII,27,Lawrencium,Os,[Xe].4f14.5d8,5d8,3F<4>,5d7 4F<9/2>,814,4,,,,,,,,,,,
103,Lr XXIX,Lr,XXIX,28,Lawrencium,Re,[Xe].4f14.5d7,5d7,4F<9/2>,5d6 5D<4>,852,4,,,,,,,,,,,
103,Lr XXX,Lr,XXX,29,Lawrencium,W,[Xe].4f14.5d6,5d6,5D<4>,5d5 6S<5/2>,888,4,,,,,,,,,,,
103,Lr XXXI,Lr,XXXI,30,Lawrencium,Ta,[Xe].4f14.5d5,5d5,6S<5/2>,5d4 5D<0>,922,4,,,,,,,,,,,
103,Lr XXXII,Lr,XXXII,31,Lawrencium,Hf,[Xe].4f14.5d4,5d4,5D0,5d3 4F<3/2>,985,4,,,,,,,,,,,
103,Lr XXXIII,Lr,XXXIII,32,Lawrencium,Lu,[Xe].4f14.5d3,5d3,4F<3/2>,5d2 3F<2>,1020,4,,,,,,,,,,,
103,Lr XXXIV,Lr,XXXIV,33,Lawrencium,Yb,[Xe].4f14.5d2,5d2,3F<2>,5d 2D<3/2>,1061,5,,,,,,,,,,,
103,Lr XXXV,Lr,XXXV,34,Lawrencium,Tm,[Xe].4f14.5d,5d,2D<3/2>,4f14 1S<0>,1098,5,,,,,,,,,,,
103,Lr XXXVI,Lr,XXXVI,35,Lawrencium,Er,[Xe].4f14,4f14,1S0,4f14.5p5 2P*<3/2>,1280,60,,,,,,,,,,,
103,Lr XXXVII,Lr,XXXVII,36,Lawrencium,Ho,[Cd].4f14.5p5,4f14.5p5,2P*<3/2>,4f14.5p4 3P<2>,1320,70,,,,,,,,,,,
103,Lr XXXVIII,Lr,XXXVIII,37,Lawrencium,Dy,[Cd].4f14.5p4,4f14.5p4,3P<2>,4f14.5p3 2P*<3/2>,1360,70,,,,,,,,,,,
103,Lr XXXIX,Lr,XXXIX,38,Lawrencium,Tb,[Cd].4f14.5p3,4f14.5p3,2P*<3/2>,4f14.5p2 3P<0>,1410,70,,,,,,,,,,,
103,Lr XL,Lr,XL,39,Lawrencium,Gd,[Cd].4f14.5p2,4f14.5p2,3P0,4f14.5p 2P*<1/2>,1570,80,,,,,,,,,,,
103,Lr XLI,Lr,XLI,40,Lawrencium,Eu,[Cd].4f14.5p,4f14.5p,2P*<1/2>,4f14 1S<0>,1620,80,,,,,,,,,,,
103,Lr XLII,Lr,XLII,41,Lawrencium,Sm,[Cd].4f14,4f14,1S0,4f14.5s 2S<1/2>,1760,90,,,,,,,,,,,
103,Lr XLIII,Lr,XLIII,42,Lawrencium,Pm,[Kr].4d10.4f14.5s,4f14.5s,2S<1/2>,4f14 1S<0>,1810,90,,,,,,,,,,,
103,Lr XLIV,Lr,XLIV,43,Lawrencium,Nd,[Kr].4d10.4f14,4f14,1S0,4f13 2F*<7/2>,2010,100,,,,,,,,,,,
103,Lr XLV,Lr,XLV,44,Lawrencium,Pr,[Kr].4d10.4f13,4f13,2F*<7/2>,4f12,2100,110,,,,,,,,,,,
103,Lr XLVI,Lr,XLVI,45,Lawrencium,Ce,[Kr].4d10.4f12,4f12,,4f11 4I*<15/2>,2190,110,,,,,,,,,,,
103,Lr XLVII,Lr,XLVII,46,Lawrencium,La,[Kr].4d10.4f11,4f11,4I*<15/2>,4f10 5I<8>,2290,110,,,,,,,,,,,
103,Lr XLVIII,Lr,XLVIII,47,Lawrencium,Ba,[Kr].4d10.4f10,4f10,5I<8>,4f9 6H*<15/2>,2380,120,,,,,,,,,,,
103,Lr XLIX,Lr,XLIX,48,Lawrencium,Cs,[Kr].4d10.4f9,4f9,6H*<15/2>,4f8 7F<6>,2470,120,,,,,,,,,,,
103,Lr L,Lr,L,49,Lawrencium,Xe,[Kr].4d10.4f8,4f8,7F<6>,4f7 8S*<7/2>,2570,120,,,,,,,,,,,
103,Lr LI,Lr,LI,50,Lawrencium,I,[Kr].4d10.4f7,4f7,8S*<7/2>,4f6 7F<0>,2670,140,,,,,,,,,,,
103,Lr LII,Lr,LII,51,Lawrencium,Te,[Kr].4d10.4f6,4f6,7F0,4f5 6H*<5/2>,2780,140,,,,,,,,,,,
103,Lr LIII,Lr,LIII,52,Lawrencium,Sb,[Kr].4d10.4f5,4f5,6H*<5/2>,4f4 5I<4>,2860,150,,,,,,,,,,,
103,Lr LIV,Lr,LIV,53,Lawrencium,Sn,[Kr].4d10.4f4,4f4,5I<4>,4f3 4I*<9/2>,2960,150,,,,,,,,,,,
103,Lr LV,Lr,LV,54,Lawrencium,In,[Kr].4d10.4f3,4f3,4I*<9/2>,4f2 3H<4>,3060,150,,,,,,,,,,,
103,Lr LVI,Lr,LVI,55,Lawrencium,Cd,[Kr].4d10.4f2,4f2,3H<4>,4f 2F*<5/2>,3150,160,,,,,,,,,,,
103,Lr LVII,Lr,LVII,56,Lawrencium,Ag,[Kr].4d10.4f,4f,2F*<5/2>,4d10 1S<0>,3250,160,,,,,,,,,,,
103,Lr LVIII,Lr,LVIII,57,Lawrencium,Pd,[Kr].4d10,4d10,1S0,4d9 2D<5/2>,3741,6,,,,,,,,,,,
103,Lr LIX,Lr,LIX,58,Lawrencium,Rh,[Kr].4d9,4d9,2D<5/2>,4d8 3F<4>,3821,6,,,,,,,,,,,
103,Lr LX,Lr,LX,59,Lawrencium,Ru,[Kr].4d8,4d8,3F<4>,4d7 4F<9/2>,3906,7,,,,,,,,,,,
103,Lr LXI,Lr,LXI,60,Lawrencium,Tc,[Kr].4d7,4d7,4F<9/2>,4d6 5D<4>,3996,10,,,,,,,,,,,
103,Lr LXII,Lr,LXII,61,Lawrencium,Mo,[Kr].4d6,4d6,5D<4>,"4d-4.4d+ (0,5/2)<5/2>",4082,12,,,,,,,,,,,
103,Lr LXIII,Lr,LXIII,62,Lawrencium,Nb,[Kr].4d5,4d-4.4d+,"(0,5/2)<5/2>",4d4 5D<0>,4165,15,,,,,,,,,,,
103,Lr LXIV,Lr,LXIV,63,Lawrencium,Zr,[Kr].4d4,4d4,5D0,4d3 4F<3/2>,4360,19,,,,,,,,,,,
103,Lr LXV,Lr,LXV,64,Lawrencium,Y,[Kr].4d3,4d3,4F<3/2>,4d2 3F<2>,4448,24,,,,,,,,,,,
103,Lr LXVI,Lr,LXVI,65,Lawrencium,Sr,[Kr].4d2,4d2,3F<2>,4d 2D<3/2>,4540,30,,,,,,,,,,,
103,Lr LXVII,Lr,LXVII,66,Lawrencium,Rb,[Kr].4d,4d,2D<3/2>,4p6 1S<0>,4630,40,,,,,,,,,,,
103,Lr LXVIII,Lr,LXVIII,67,Lawrencium,Kr,[Ar].3d10.4s2.4p6,4p6,1S0,4p5 2P*<3/2>,4990,40,,,,,,,,,,,
103,Lr LXIX,Lr,LXIX,68,Lawrencium,Br,[Ar].3d10.4s2.4p5,4p5,2P*<3/2>,4p4 3P<2>,5070,50,,,,,,,,,,,
103,Lr LXX,Lr,LXX,69,Lawrencium,Se,[Ar].3d10.4s2.4p4,4p4,3P<2>,"4p-2.4p+ (0,3/2)*<3/2>",5160,50,,,,,,,,,,,
103,Lr LXXI,Lr,LXXI,70,Lawrencium,As,[Ar].3d10.4s2.4p3,4p-2.4p+,"(0,3/2)*<3/2>",4p2 3P<0>,5250,60,,,,,,,,,,,
103,Lr LXXII,Lr,LXXII,71,Lawrencium,Ge,[Ar].3d10.4s2.4p2,4p2,3P0,4p 2P*<1/2>,5920,60,,,,,,,,,,,
103,Lr LXXIII,Lr,LXXIII,72,Lawrencium,Ga,[Ar].3d10.4s2.4p,4p,2P*<1/2>,4s2 1S<0>,6030,70,,,,,,,,,,,
103,Lr LXXIV,Lr,LXXIV,73,Lawrencium,Zn,[Ar].3d10.4s2,4s2,1S0,4s 2S<1/2>,6290,90,,,,,,,,,,,
103,Lr LXXV,Lr,LXXV,74,Lawrencium,Cu,[Ar].3d10.4s,4s,2S<1/2>,3d10 1S<0>,6390,90,,,,,,,,,,,
103,Lr LXXVI,Lr,LXXVI,75,Lawrencium,Ni,[Ar].3d10,3d10,1S0,3d9 2D<5/2>,9920,100,,,,,,,,,,,
103,Lr LXXVII,Lr,LXXVII,76,Lawrencium,Co,[Ar].3d9,3d9,2D<5/2>,3d8 3F<4>,10110,110,,,,,,,,,,,
103,Lr LXXVIII,Lr,LXXVIII,77,Lawrencium,Fe,[Ar].3d8,3d8,3F<4>,3d7 4F<9/2>,10310,120,,,,,,,,,,,
103,Lr LXXIX,Lr,LXXIX,78,Lawrencium,Mn,[Ar].3d7,3d7,4F<9/2>,"3d-4.3d+2 (0,4)<4>",10520,120,,,,,,,,,,,
103,Lr LXXX,Lr,LXXX,79,Lawrencium,Cr,[Ar].3d6,3d-4.3d+2,"(0,4)<4>","3d-4.3d+ (0,5/2)<5/2>",10720,140,,,,,,,,,,,
103,Lr LXXXI,Lr,LXXXI,80,Lawrencium,V,[Ar].3d5,3d-4.3d+,"(0,5/2)<5/2>",3d4 5D<0>,10920,150,,,,,,,,,,,
103,Lr LXXXII,Lr,LXXXII,81,Lawrencium,Ti,[Ar].3d4,3d4,5D0,3d3 4F<3/2>,11470,160,,,,,,,,,,,
103,Lr LXXXIII,Lr,LXXXIII,82,Lawrencium,Sc,[Ar].3d3,3d3,4F<3/2>,3d2 3F<2>,11680,170,,,,,,,,,,,
103,Lr LXXXIV,Lr,LXXXIV,83,Lawrencium,Ca,[Ar].3d2,3d2,3F<2>,3d 2D<3/2>,11910,190,,,,,,,,,,,
103,Lr LXXXV,Lr,LXXXV,84,Lawrencium,K,[Ar].3d,3d,2D<3/2>,3p6 1S<0>,12120,200,,,,,,,,,,,
103,Lr LXXXVI,Lr,LXXXVI,85,Lawrencium,Ar,[Ne].3s2.3p6,3p6,1S0,3p5 2P*<3/2>,12710,220,,,,,,,,,,,
103,Lr LXXXVII,Lr,LXXXVII,86,Lawrencium,Cl,[Ne].3s2.3p5,3p5,2P*<3/2>,3p4 3P<2>,12890,240,,,,,,,,,,,
103,Lr LXXXVIII,Lr,LXXXVIII,87,Lawrencium,S,[Ne].3s2.3p4,3p4,3P<2>,3p3 2P*<3/2>,13090,250,,,,,,,,,,,
103,Lr LXXXIX,Lr,LXXXIX,88,Lawrencium,P,[Ne].3s2.3p3,3p3,2P*<3/2>,3p2 3P<0>,13300,300,,,,,,,,,,,
103,Lr XC,Lr,XC,89,Lawrencium,Si,[Ne].3s2.3p2,3p2,3P0,3p 2P*<1/2>,15300,300,,,,,,,,,,,
103,Lr XCI,Lr,XCI,90,Lawrencium,Al,[Ne].3s2.3p,3p,2P*<1/2>,3s2 1S<0>,15600,300,,,,,,,,,,,
103,Lr XCII,Lr,XCII,91,Lawrencium,Mg,[Ne].3s2,3s2,1S0,3s 2S<1/2>,16000,300,,,,,,,,,,,
103,Lr XCIII,Lr,XCIII,92,Lawrencium,Na,[Ne].3s,3s,2S<1/2>,2p6 1S<0>,16200,400,,,,,,,,,,,
103,Lr XCIV,Lr,XCIV,93,Lawrencium,Ne,1s2.2s2.2p6,2p6,1S0,2p5 2P*<3/2>,32400,400,,,,,,,,,,,
103,Lr XCV,Lr,XCV,94,Lawrencium,F,1s2.2s2.2p5,2p5,2P*<3/2>,2p4 3P<2>,32900,400,,,,,,,,,,,
103,Lr XCVI,Lr,XCVI,95,Lawrencium,O,1s2.2s2.2p4,2p4,3P<2>,"2p2<1/2>.2p<3/2> (0,3/2)*<3/2>",33400,400,,,,,,,,,,,
103,Lr XCVII,Lr,XCVII,96,Lawrencium,N,1s2.2s2.2p3,2p2<1/2>.2p<3/2>,"(0,3/2)*<3/2>",2p2 3P<0>,33900,400,,,,,,,,,,,
103,Lr XCVIII,Lr,XCVIII,97,Lawrencium,C,1s2.2s2.2p2,2p2,3P0,2p 2P*<1/2>,41600,400,,,,,,,,,,,
103,Lr XCIX,Lr,XCIX,98,Lawrencium,B,1s2.2s2.2p,2p,2P*<1/2>,2s2 1S<0>,42300,500,,,,,,,,,,,
103,Lr C,Lr,C,99,Lawrencium,Be,1s2.2s2,2s2,1S0,2s 2S<1/2>,43200,500,,,,,,,,,,,
103,Lr CI,Lr,CI,100,Lawrencium,Li,1s2.2s,1s2.2s,2S<1/2>,1s2 1S<0>,43759,6,,,,,,,,,,,
103,Lr CII,Lr,CII,101,Lawrencium,He,1s2,1s2,1S0,1s 2S<1/2>,170116,8,,,,,,,,,,,
103,Lr CIII,Lr,CIII,102,Lawrencium,H,1s,1s,2S<1/2>,,172928,9,,,,,,,,,,,
104,Rf I,Rf,I,0,Rutherfordium,Rf,[Rn].5f14.6d2.7s2,6d2.7s2,3F<2>,6d.7s2 2D<3/2>,6.02,0.04,,,,,,,,,,,
104,Rf II,Rf,II,1,Rutherfordium,Lr,[Rn].5f14.6d.7s2,6d.7s2,2D<3/2>,7s2 1S<0>,14.35,0.04,,,,,,,,,,,
104,Rf III,Rf,III,2,Rutherfordium,No,[Rn].5f14.7s2,7s2,1S0,5f14.7s 2S<1/2>,23.84,0.04,,,,,,,,,,,
104,Rf IV,Rf,IV,3,Rutherfordium,Md,[Rn].5f14.7s,5f14.7s,2S<1/2>,5f14 1S<0>,31.87,0.04,,,,,,,,,,,
104,Rf V,Rf,V,4,Rutherfordium,Fm,[Rn].5f14,5f14,1S0,5f13 2F*<7/2>,64,1.9,,,,,,,,,,,
104,Rf VI,Rf,VI,5,Rutherfordium,Es,[Rn].5f13,5f13,2F*<7/2>,5f12 3H<6>,77,2,,,,,,,,,,,
104,Rf VII,Rf,VII,6,Rutherfordium,Cf,[Rn].5f12,5f12,3H<6>,5f11 4I*<15/2>,102,2,,,,,,,,,,,
104,Rf VIII,Rf,VIII,7,Rutherfordium,Bk,[Rn].5f11,5f11,4I*<15/2>,5f10 5I<8>,119,2.1,,,,,,,,,,,
104,Rf IX,Rf,IX,8,Rutherfordium,Cm,[Rn].5f10,5f10,5I<8>,5f9 6H*<15/2>,146.1,2.2,,,,,,,,,,,
104,Rf X,Rf,X,9,Rutherfordium,Am,[Rn].5f9,5f9,6H*<15/2>,5f8 7F<6>,169,2.2,,,,,,,,,,,
104,Rf XI,Rf,XI,10,Rutherfordium,Pu,[Rn].5f8,5f8,7F<6>,5f7 8S*<7/2>,193,2.4,,,,,,,,,,,
104,Rf XII,Rf,XII,11,Rutherfordium,Np,[Rn].5f7,5f7,8S*<7/2>,5f6 7F<0>,225,2.5,,,,,,,,,,,
104,Rf XIII,Rf,XIII,12,Rutherfordium,U,[Rn].5f6,5f6,7F0,5f5 6H*<5/2>,244,3,,,,,,,,,,,
104,Rf XIV,Rf,XIV,13,Rutherfordium,Pa,[Rn].5f5,5f5,6H*<5/2>,5f4 5I<4>,275,3,,,,,,,,,,,
104,Rf XV,Rf,XV,14,Rutherfordium,Th,[Rn].5f4,5f4,5I<4>,,,,,,,,,,,,,,
104,Rf XXVII,Rf,XXVII,26,Rutherfordium,Pt,[Xe].4f14.5d10,5d10,1S0,5d9 2D<5/2>,791,4,,,,,,,,,,,
104,Rf XXVIII,Rf,XXVIII,27,Rutherfordium,Ir,[Xe].4f14.5d9,5d9,2D<5/2>,5d8 3F<4>,825,4,,,,,,,,,,,
104,Rf XXIX,Rf,XXIX,28,Rutherfordium,Os,[Xe].4f14.5d8,5d8,3F<4>,5d7 4F<9/2>,860,4,,,,,,,,,,,
104,Rf XXX,Rf,XXX,29,Rutherfordium,Re,[Xe].4f14.5d7,5d7,4F<9/2>,5d6 5D<4>,899,4,,,,,,,,,,,
104,Rf XXXI,Rf,XXXI,30,Rutherfordium,W,[Xe].4f14.5d6,5d6,5D<4>,5d5 6S<5/2>,936,4,,,,,,,,,,,
104,Rf XXXII,Rf,XXXII,31,Rutherfordium,Ta,[Xe].4f14.5d5,5d5,6S<5/2>,5d4 5D<0>,972,4,,,,,,,,,,,
104,Rf XXXIII,Rf,XXXIII,32,Rutherfordium,Hf,[Xe].4f14.5d4,5d4,5D0,5d3 4F<3/2>,1036,4,,,,,,,,,,,
104,Rf XXXIV,Rf,XXXIV,33,Rutherfordium,Lu,[Xe].4f14.5d3,5d3,4F<3/2>,5d2 3F<2>,1073,5,,,,,,,,,,,
104,Rf XXXV,Rf,XXXV,34,Rutherfordium,Yb,[Xe].4f14.5d2,5d2,3F<2>,5d 2D<3/2>,1114,5,,,,,,,,,,,
104,Rf XXXVI,Rf,XXXVI,35,Rutherfordium,Tm,[Xe].4f14.5d,5d,2D<3/2>,4f14 1S<0>,1151,5,,,,,,,,,,,
104,Rf XXXVII,Rf,XXXVII,36,Rutherfordium,Er,[Xe].4f14,4f14,1S0,4f14.5p5 2P*<3/2>,,,,,,,,,,,,,
104,Rf XXXVIII,Rf,XXXVIII,37,Rutherfordium,Ho,[Cd].4f14.5p5,4f14.5p5,2P*<3/2>,4f14.5p4 3P<2>,,,,,,,,,,,,,
104,Rf XXXIX,Rf,XXXIX,38,Rutherfordium,Dy,[Cd].4f14.5p4,4f14.5p4,3P<2>,4f14.5p3 2P*<3/2>,,,,,,,,,,,,,
104,Rf XL,Rf,XL,39,Rutherfordium,Tb,[Cd].4f14.5p3,4f14.5p3,2P*<3/2>,4f14.5p2 3P<0>,,,,,,,,,,,,,
104,Rf XLI,Rf,XLI,40,Rutherfordium,Gd,[Cd].4f14.5p2,4f14.5p2,3P0,4f14.5p 2P*<1/2>,,,,,,,,,,,,,
104,Rf XLII,Rf,XLII,41,Rutherfordium,Eu,[Cd].4f14.5p,4f14.5p,2P*<1/2>,4f14 1S<0>,,,,,,,,,,,,,
104,Rf XLIII,Rf,XLIII,42,Rutherfordium,Sm,[Cd].4f14,4f14,1S0,4f14.5s 2S<1/2>,,,,,,,,,,,,,
104,Rf XLIV,Rf,XLIV,43,Rutherfordium,Pm,[Kr].4d10.4f14.5s,4f14.5s,2S<1/2>,4f14 1S<0>,,,,,,,,,,,,,
104,Rf XLV,Rf,XLV,44,Rutherfordium,Nd,[Kr].4d10.4f14,4f14,1S0,4f13 2F*<7/2>,,,,,,,,,,,,,
104,Rf XLVI,Rf,XLVI,45,Rutherfordium,Pr,[Kr].4d10.4f13,4f13,2F*<7/2>,4f12,,,,,,,,,,,,,
104,Rf XLVII,Rf,XLVII,46,Rutherfordium,Ce,[Kr].4d10.4f12,4f12,,4f11 4I*<15/2>,,,,,,,,,,,,,
104,Rf XLVIII,Rf,XLVIII,47,Rutherfordium,La,[Kr].4d10.4f11,4f11,4I*<15/2>,4f10 5I<8>,,,,,,,,,,,,,
104,Rf XLIX,Rf,XLIX,48,Rutherfordium,Ba,[Kr].4d10.4f10,4f10,5I<8>,4f9 6H*<15/2>,,,,,,,,,,,,,
104,Rf L,Rf,L,49,Rutherfordium,Cs,[Kr].4d10.4f9,4f9,6H*<15/2>,4f8 7F<6>,,,,,,,,,,,,,
104,Rf LI,Rf,LI,50,Rutherfordium,Xe,[Kr].4d10.4f8,4f8,7F<6>,4f7 8S*<7/2>,,,,,,,,,,,,,
104,Rf LII,Rf,LII,51,Rutherfordium,I,[Kr].4d10.4f7,4f7,8S*<7/2>,4f6 7F<0>,,,,,,,,,,,,,
104,Rf LIII,Rf,LIII,52,Rutherfordium,Te,[Kr].4d10.4f6,4f6,7F0,4f5 6H*<5/2>,,,,,,,,,,,,,
104,Rf LIV,Rf,LIV,53,Rutherfordium,Sb,[Kr].4d10.4f5,4f5,6H*<5/2>,4f4 5I<4>,,,,,,,,,,,,,
104,Rf LV,Rf,LV,54,Rutherfordium,Sn,[Kr].4d10.4f4,4f4,5I<4>,4f3 4I*<9/2>,,,,,,,,,,,,,
104,Rf LVI,Rf,LVI,55,Rutherfordium,In,[Kr].4d10.4f3,4f3,4I*<9/2>,4f2 3H<4>,,,,,,,,,,,,,
104,Rf LVII,Rf,LVII,56,Rutherfordium,Cd,[Kr].4d10.4f2,4f2,3H<4>,4f 2F*<5/2>,,,,,,,,,,,,,
104,Rf LVIII,Rf,LVIII,57,Rutherfordium,Ag,[Kr].4d10.4f,4f,2F*<5/2>,4d10 1S<0>,,,,,,,,,,,,,
104,Rf LIX,Rf,LIX,58,Rutherfordium,Pd,[Kr].4d10,4d10,1S0,4d9 2D<5/2>,3857,6,,,,,,,,,,,
104,Rf LX,Rf,LX,59,Rutherfordium,Rh,[Kr].4d9,4d9,2D<5/2>,4d8 3F<4>,3938,7,,,,,,,,,,,
104,Rf LXI,Rf,LXI,60,Rutherfordium,Ru,[Kr].4d8,4d8,3F<4>,4d7 4F<9/2>,4025,10,,,,,,,,,,,
104,Rf LXII,Rf,LXII,61,Rutherfordium,Tc,[Kr].4d7,4d7,4F<9/2>,4d6 5D<4>,4116,12,,,,,,,,,,,
104,Rf LXIII,Rf,LXIII,62,Rutherfordium,Mo,[Kr].4d6,4d6,5D<4>,"4d-4.4d+ (0,5/2)<5/2>",4203,15,,,,,,,,,,,
104,Rf LXIV,Rf,LXIV,63,Rutherfordium,Nb,[Kr].4d5,4d-4.4d+,"(0,5/2)<5/2>",4d4 5D<0>,4287,19,,,,,,,,,,,
104,Rf LXV,Rf,LXV,64,Rutherfordium,Zr,[Kr].4d4,4d4,5D0,4d3 4F<3/2>,4489,24,,,,,,,,,,,
104,Rf LXVI,Rf,LXVI,65,Rutherfordium,Y,[Kr].4d3,4d3,4F<3/2>,4d2 3F<2>,4580,30,,,,,,,,,,,
104,Rf LXVII,Rf,LXVII,66,Rutherfordium,Sr,[Kr].4d2,4d2,3F<2>,4d 2D<3/2>,4670,40,,,,,,,,,,,
104,Rf LXVIII,Rf,LXVIII,67,Rutherfordium,Rb,[Kr].4d,4d,2D<3/2>,4p6 1S<0>,4760,40,,,,,,,,,,,