At. num,Sp. Name,Element,Valence,Ion Charge,El. Name,Isoel. Seq.,Ground Shells (a),Ground Config.,Ground Level,Ionized Level,Ionization Energy (b) (eV),Uncertainty (c) (eV),,,,,,,,,,,
93,Np XXXVII,Np,XXXVII,36,Neptunium,La,[Kr].4d10.4f11,4f11,4I*<15/2>,4f10 5I<8>,1510,70,,,,,,,,,,,
93,Np XXXVIII,Np,XXXVIII,37,Neptunium,Ba,[Kr].4d10.4f10,4f10,5I<8>,4f9 6H*<15/2>,1590,80,,,,,,,,,,,
93,Np XXXIX,Np,XXXIX,38,Neptunium,Cs,[Kr].4d10.4f9,4f9,6H*<15/2>,4f8 7F<6>,1670,80,,,,,,,,,,,
93,Np XL,Np,XL,39,Neptunium,Xe,[Kr].4d10.4f8,4f8,7F<6>,4f7 8S*<7/2>,1740,90,,,,,,,,,,,
93,Np XLI,Np,XLI,40,Neptunium,I,[Kr].4d10.4f7,4f7,8S*<7/2>,4f6 7F<0>,1820,90,,,,,,,,,,,
93,Np XLII,Np,XLII,41,Neptunium,Te,[Kr].4d10.4f6,4f6,7F0,4f5 6H*<5/2>,1910,100,,,,,,,,,,,
93,Np XLIII,Np,XLIII,42,Neptunium,Sb,[Kr].4d10.4f5,4f5,6H*<5/2>,4f4 5I<4>,1990,100,,,,,,,,,,,
93,Np XLIV,Np,XLIV,43,Neptunium,Sn,[Kr].4d10.4f4,4f4,5I<4>,4f3 4I*<9/2>,2070,100,,,,,,,,,,,
93,Np XLV,Np,XLV,44,Neptunium,In,[Kr].4d10.4f3,4f3,4I*<9/2>,4f2 3H<4>,2140,110,,,,,,,,,,,
93,Np XLVI,Np,XLVI,45,Neptunium,Cd,[Kr].4d10.4f2,4f2,3H<4>,4f 2F*<5/2>,2230,110,,,,,,,,,,,
93,Np XLVII,Np,XLVII,46,Neptunium,Ag,[Kr].4d10.4f,4f,2F*<5/2>,4d10 1S<0>,2310,110,,,,,,,,,,,
93,Np XLVIII,Np,XLVIII,47,Neptunium,Pd,[Kr].4d10,4d10,1S0,4d9 2D<5/2>,2675,4,,,,,,,,,,,
93,Np XLIX,Np,XLIX,48,Neptunium,Rh,[Kr].4d9,4d9,2D<5/2>,4d8 3F<4>,2745,4,,,,,,,,,,,
93,Np L,Np,L,49,Neptunium,Ru,[Kr].4d8,4d8,3F<4>,4d7 4F<9/2>,2817,4,,,,,,,,,,,
93,Np LI,Np,LI,50,Neptunium,Tc,[Kr].4d7,4d7,4F<9/2>,4d6 5D<4>,2894,4,,,,,,,,,,,
93,Np LII,Np,LII,51,Neptunium,Mo,[Kr].4d6,4d6,5D<4>,"4d-4.4d+ (0,5/2)<5/2>",2969,4,,,,,,,,,,,
93,Np LIII,Np,LIII,52,Neptunium,Nb,[Kr].4d5,4d-4.4d+,"(0,5/2)<5/2>",4d4 5D<0>,3041,4,,,,,,,,,,,
93,Np LIV,Np,LIV,53,Neptunium,Zr,[Kr].4d4,4d4,5D0,4d3 4F<3/2>,3181,5,,,,,,,,,,,
93,Np LV,Np,LV,54,Neptunium,Y,[Kr].4d3,4d3,4F<3/2>,4d2 3F<2>,3255,5,,,,,,,,,,,
93,Np LVI,Np,LVI,55,Neptunium,Sr,[Kr].4d2,4d2,3F<2>,4d 2D<3/2>,3338,5,,,,,,,,,,,
93,Np LVII,Np,LVII,56,Neptunium,Rb,[Kr].4d,4d,2D<3/2>,4p6 1S<0>,3413,5,,,,,,,,,,,
93,Np LVIII,Np,LVIII,57,Neptunium,Kr,[Ar].3d10.4s2.4p6,4p6,1S0,4p5 2P*<3/2>,3718,6,,,,,,,,,,,
93,Np LIX,Np,LIX,58,Neptunium,Br,[Ar].3d10.4s2.4p5,4p5,2P*<3/2>,4p4 3P<2>,3792,6,,,,,,,,,,,
93,Np LX,Np,LX,59,Neptunium,Se,[Ar].3d10.4s2.4p4,4p4,3P<2>,"4p-2.4p+ (0,3/2)*<3/2>",3872,7,,,,,,,,,,,
93,Np LXI,Np,LXI,60,Neptunium,As,[Ar].3d10.4s2.4p3,4p-2.4p+,"(0,3/2)*<3/2>",4p2 3P<0>,3947,10,,,,,,,,,,,
93,Np LXII,Np,LXII,61,Neptunium,Ge,[Ar].3d10.4s2.4p2,4p2,3P0,4p 2P*<1/2>,4353,12,,,,,,,,,,,
93,Np LXIII,Np,LXIII,62,Neptunium,Ga,[Ar].3d10.4s2.4p,4p,2P*<1/2>,4s2 1S<0>,4441,15,,,,,,,,,,,
93,Np LXIV,Np,LXIV,63,Neptunium,Zn,[Ar].3d10.4s2,4s2,1S0,4s 2S<1/2>,4658,19,,,,,,,,,,,
93,Np LXV,Np,LXV,64,Neptunium,Cu,[Ar].3d10.4s,4s,2S<1/2>,3d10 1S<0>,4744,24,,,,,,,,,,,
93,Np LXVI,Np,LXVI,65,Neptunium,Ni,[Ar].3d10,3d10,1S0,3d9 2D<5/2>,7610,30,,,,,,,,,,,
93,Np LXVII,Np,LXVII,66,Neptunium,Co,[Ar].3d9,3d9,2D<5/2>,3d8 3F<4>,7770,40,,,,,,,,,,,
93,Np LXVIII,Np,LXVIII,67,Neptunium,Fe,[Ar].3d8,3d8,3F<4>,3d7 4F<9/2>,7950,40,,,,,,,,,,,
93,Np LXIX,Np,LXIX,68,Neptunium,Mn,[Ar].3d7,3d7,4F<9/2>,"3d-4.3d+2 (0,4)<4>",8130,50,,,,,,,,,,,
93,Np LXX,Np,LXX,69,Neptunium,Cr,[Ar].3d6,3d-4.3d+2,"(0,4)<4>","3d-4.3d+ (0,5/2)<5/2>",8310,50,,,,,,,,,,,
93,Np LXXI,Np,LXXI,70,Neptunium,V,[Ar].3d5,3d-4.3d+,"(0,5/2)<5/2>",3d4 5D<0>,8480,60,,,,,,,,,,,
93,Np LXXII,Np,LXXII,71,Neptunium,Ti,[Ar].3d4,3d4,5D0,3d3 4F<3/2>,8890,60,,,,,,,,,,,
93,Np LXXIII,Np,LXXIII,72,Neptunium,Sc,[Ar].3d3,3d3,4F<3/2>,3d2 3F<2>,9070,70,,,,,,,,,,,
93,Np LXXIV,Np,LXXIV,73,Neptunium,Ca,[Ar].3d2,3d2,3F<2>,3d 2D<3/2>,9270,90,,,,,,,,,,,
93,Np LXXV,Np,LXXV,74,Neptunium,K,[Ar].3d,3d,2D<3/2>,3p6 1S<0>,9450,90,,,,,,,,,,,
93,Np LXXVI,Np,LXXVI,75,Neptunium,Ar,[Ne].3s2.3p6,3p6,1S0,3p5 2P*<3/2>,9970,100,,,,,,,,,,,
93,Np LXXVII,Np,LXXVII,76,Neptunium,Cl,[Ne].3s2.3p5,3p5,2P*<3/2>,3p4 3P<2>,10130,110,,,,,,,,,,,
93,Np LXXVIII,Np,LXXVIII,77,Neptunium,S,[Ne].3s2.3p4,3p4,3P<2>,3p3 2P*<3/2>,10300,120,,,,,,,,,,,
93,Np LXXIX,Np,LXXIX,78,Neptunium,P,[Ne].3s2.3p3,3p3,2P*<3/2>,3p2 3P<0>,10470,120,,,,,,,,,,,
93,Np LXXX,Np,LXXX,79,Neptunium,Si,[Ne].3s2.3p2,3p2,3P0,3p 2P*<1/2>,11730,140,,,,,,,,,,,
93,Np LXXXI,Np,LXXXI,80,Neptunium,Al,[Ne].3s2.3p,3p,2P*<1/2>,3s2 1S<0>,11930,150,,,,,,,,,,,
93,Np LXXXII,Np,LXXXII,81,Neptunium,Mg,[Ne].3s2,3s2,1S0,3s 2S<1/2>,12320,160,,,,,,,,,,,
93,Np LXXXIII,Np,LXXXIII,82,Neptunium,Na,[Ne].3s,3s,2S<1/2>,2p6 1S<0>,12500,170,,,,,,,,,,,
93,Np LXXXIV,Np,LXXXIV,83,Neptunium,Ne,1s2.2s2.2p6,2p6,1S0,2p5 2P*<3/2>,25870,190,,,,,,,,,,,
93,Np LXXXV,Np,LXXXV,84,Neptunium,F,1s2.2s2.2p5,2p5,2P*<3/2>,2p4 3P<2>,26300,200,,,,,,,,,,,
93,Np LXXXVI,Np,LXXXVI,85,Neptunium,O,1s2.2s2.2p4,2p4,3P<2>,"2p2<1/2>.2p<3/2> (0,3/2)*<3/2>",26770,220,,,,,,,,,,,
93,Np LXXXVII,Np,LXXXVII,86,Neptunium,N,1s2.2s2.2p3,2p2<1/2>.2p<3/2>,"(0,3/2)*<3/2>",2p2 3P<0>,27210,240,,,,,,,,,,,
93,Np LXXXVIII,Np,LXXXVIII,87,Neptunium,C,1s2.2s2.2p2,2p2,3P0,2p 2P*<1/2>,31910,250,,,,,,,,,,,
93,Np LXXXIX,Np,LXXXIX,88,Neptunium,B,1s2.2s2.2p,2p,2P*<1/2>,2s2 1S<0>,32500,300,,,,,,,,,,,
93,Np XC,Np,XC,89,Neptunium,Be,1s2.2s2,2s2,1S0,2s 2S<1/2>,33300,300,,,,,,,,,,,
93,Np XCI,Np,XCI,90,Neptunium,Li,1s2.2s,1s2.2s,2S<1/2>,1s2 1S<0>,33722.2,0.7,,,,,,,,,,,
93,Np XCII,Np,XCII,91,Neptunium,He,1s2,1s2,1S0,1s 2S<1/2>,132911,3,,,,,,,,,,,
93,Np XCIII,Np,XCIII,92,Neptunium,H,1s,1s,2S<1/2>,,135202,4,,,,,,,,,,,
94,Pu I,Pu,I,0,Plutonium,Pu,[Rn].5f6.7s2,5f6.7s2,7F0,5f6.7s 8F<1/2>,6.02576,0.00025,,,,,,,,,,,
94,Pu II,Pu,II,1,Plutonium,Np,[Rn].5f6.7s,5f6.7s,8F<1/2>,5f6 7F<0>,11.5,0.4,,,,,,,,,,,
94,Pu III,Pu,III,2,Plutonium,U,[Rn].5f6,5f6,7F0,5f5 6H*<5/2>,21.1,0.4,,,,,,,,,,,
94,Pu IV,Pu,IV,3,Plutonium,Pa,[Rn].5f5,5f5,6H*<5/2>,5f4 5I<4>,35,0.4,,,,,,,,,,,
94,Pu V,Pu,V,4,Plutonium,Th,[Rn].5f4,5f4,5I<4>,5f3.6p6 4I*<9/2>,49,1.9,,,,,,,,,,,
94,Pu VI,Pu,VI,5,Plutonium,Ac,[Rn].5f3,5f3.6p6,4I*<9/2>,5f3.6p5,80,4,,,,,,,,,,,
94,Pu VII,Pu,VII,6,Plutonium,Ra,[Hg].5f3.6p5,5f3.6p5,,5f3.6p4*,95,5,,,,,,,,,,,
94,Pu VIII,Pu,VIII,7,Plutonium,Fr,[Hg].5f3.6p4,5f3.6p4,*,5f3.6p3,109,5,,,,,,,,,,,
94,Pu IX,Pu,IX,8,Plutonium,Rn,[Hg].5f3.6p3,5f3.6p3,,5f3.6p2*,124,6,,,,,,,,,,,
94,Pu X,Pu,X,9,Plutonium,At,[Hg].5f3.6p2,5f3.6p2,*,5f2.6p2,139,7,,,,,,,,,,,
94,Pu XI,Pu,XI,10,Plutonium,Po,[Hg].5f2.6p2,5f2.6p2,,5f.6p2*,159,8,,,,,,,,,,,
94,Pu XII,Pu,XII,11,Plutonium,Bi,[Hg].5f.6p2,5f.6p2,*,6p2 3P<0>,179,9,,,,,,,,,,,
94,Pu XIII,Pu,XIII,12,Plutonium,Pb,[Hg].6p2,6p2,3P0,6p 2P*<1/2>,200,3,,,,,,,,,,,
94,Pu XIV,Pu,XIV,13,Plutonium,Tl,[Hg].6p,6p,2P*<1/2>,6s2 1S<0>,219,3,,,,,,,,,,,
94,Pu XV,Pu,XV,14,Plutonium,Hg,[Xe].4f14.5d10.6s2,6s2,1S0,6s 2S<1/2>,258,3,,,,,,,,,,,
94,Pu XVI,Pu,XVI,15,Plutonium,Au,[Xe].4f14.5d10.6s,6s,2S<1/2>,5d10 1S<0>,278,3,,,,,,,,,,,
94,Pu XVII,Pu,XVII,16,Plutonium,Pt,[Xe].4f14.5d10,5d10,1S0,5d9 2D<5/2>,389,3,,,,,,,,,,,
94,Pu XVIII,Pu,XVIII,17,Plutonium,Ir,[Xe].4f14.5d9,5d9,2D<5/2>,5d8 3F<4>,416,3,,,,,,,,,,,
94,Pu XIX,Pu,XIX,18,Plutonium,Os,[Xe].4f14.5d8,5d8,3F<4>,5d7 4F<9/2>,444,3,,,,,,,,,,,
94,Pu XX,Pu,XX,19,Plutonium,Re,[Xe].4f14.5d7,5d7,4F<9/2>,5d6 5D<4>,474,4,,,,,,,,,,,
94,Pu XXI,Pu,XXI,20,Plutonium,W,[Xe].4f14.5d6,5d6,5D<4>,5d5 6S<5/2>,503,4,,,,,,,,,,,
94,Pu XXII,Pu,XXII,21,Plutonium,Ta,[Xe].4f14.5d5,5d5,6S<5/2>,5d4 5D<0>,532,4,,,,,,,,,,,
94,Pu XXIII,Pu,XXIII,22,Plutonium,Hf,[Xe].4f14.5d4,5d4,5D0,5d3 4F<3/2>,575,4,,,,,,,,,,,
94,Pu XXIV,Pu,XXIV,23,Plutonium,Lu,[Xe].4f14.5d3,5d3,4F<3/2>,5d2 3F<2>,605,4,,,,,,,,,,,
94,Pu XXV,Pu,XXV,24,Plutonium,Yb,[Xe].4f14.5d2,5d2,3F<2>,5d 2D<3/2>,637,4,,,,,,,,,,,
94,Pu XXVI,Pu,XXVI,25,Plutonium,Tm,[Xe].4f14.5d,5d,2D<3/2>,4f14 1S<0>,668,4,,,,,,,,,,,
94,Pu XXVII,Pu,XXVII,26,Plutonium,Er,[Xe].4f14,4f14,1S0,4f14.5p5 2P*<3/2>,820,40,,,,,,,,,,,
94,Pu XXVIII,Pu,XXVIII,27,Plutonium,Ho,[Cd].4f14.5p5,4f14.5p5,2P*<3/2>,4f14.5p4 3P<2>,850,40,,,,,,,,,,,
94,Pu XXIX,Pu,XXIX,28,Plutonium,Dy,[Cd].4f14.5p4,4f14.5p4,3P<2>,4f14.5p3 2P*<3/2>,890,40,,,,,,,,,,,
94,Pu XXX,Pu,XXX,29,Plutonium,Tb,[Cd].4f14.5p3,4f14.5p3,2P*<3/2>,4f14.5p2 3P<0>,930,50,,,,,,,,,,,
94,Pu XXXI,Pu,XXXI,30,Plutonium,Gd,[Cd].4f14.5p2,4f14.5p2,3P0,4f14.5p 2P*<1/2>,1030,50,,,,,,,,,,,
94,Pu XXXII,Pu,XXXII,31,Plutonium,Eu,[Cd].4f14.5p,4f14.5p,2P*<1/2>,4f14 1S<0>,1070,50,,,,,,,,,,,
94,Pu XXXIII,Pu,XXXIII,32,Plutonium,Sm,[Cd].4f14,4f14,1S0,4f14.5s 2S<1/2>,1180,60,,,,,,,,,,,
94,Pu XXXIV,Pu,XXXIV,33,Plutonium,Pm,[Kr].4d10.4f14.5s,4f14.5s,2S<1/2>,4f14 1S<0>,1220,60,,,,,,,,,,,
94,Pu XXXV,Pu,XXXV,34,Plutonium,Nd,[Kr].4d10.4f14,4f14,1S0,4f13 2F*<7/2>,1340,70,,,,,,,,,,,
94,Pu XXXVI,Pu,XXXVI,35,Plutonium,Pr,[Kr].4d10.4f13,4f13,2F*<7/2>,4f12,1420,70,,,,,,,,,,,
94,Pu XXXVII,Pu,XXXVII,36,Plutonium,Ce,[Kr].4d10.4f12,4f12,,4f11 4I*<15/2>,1500,70,,,,,,,,,,,
94,Pu XXXVIII,Pu,XXXVIII,37,Plutonium,La,[Kr].4d10.4f11,4f11,4I*<15/2>,4f10 5I<8>,1580,70,,,,,,,,,,,
94,Pu XXXIX,Pu,XXXIX,38,Plutonium,Ba,[Kr].4d10.4f10,4f10,5I<8>,4f9 6H*<15/2>,1660,80,,,,,,,,,,,
94,Pu XL,Pu,XL,39,Plutonium,Cs,[Kr].4d10.4f9,4f9,6H*<15/2>,4f8 7F<6>,1740,90,,,,,,,,,,,
94,Pu XLI,Pu,XLI,40,Plutonium,Xe,[Kr].4d10.4f8,4f8,7F<6>,4f7 8S*<7/2>,1820,90,,,,,,,,,,,
94,Pu XLII,Pu,XLII,41,Plutonium,I,[Kr].4d10.4f7,4f7,8S*<7/2>,4f6 7F<0>,1890,90,,,,,,,,,,,
94,Pu XLIII,Pu,XLIII,42,Plutonium,Te,[Kr].4d10.4f6,4f6,7F0,4f5 6H*<5/2>,1990,100,,,,,,,,,,,
94,Pu XLIV,Pu,XLIV,43,Plutonium,Sb,[Kr].4d10.4f5,4f5,6H*<5/2>,4f4 5I<4>,2070,100,,,,,,,,,,,
94,Pu XLV,Pu,XLV,44,Plutonium,Sn,[Kr].4d10.4f4,4f4,5I<4>,4f3 4I*<9/2>,2150,110,,,,,,,,,,,
94,Pu XLVI,Pu,XLVI,45,Plutonium,In,[Kr].4d10.4f3,4f3,4I*<9/2>,4f2 3H<4>,2230,110,,,,,,,,,,,
94,Pu XLVII,Pu,XLVII,46,Plutonium,Cd,[Kr].4d10.4f2,4f2,3H<4>,4f 2F*<5/2>,2310,110,,,,,,,,,,,
94,Pu XLVIII,Pu,XLVIII,47,Plutonium,Ag,[Kr].4d10.4f,4f,2F*<5/2>,4d10 1S<0>,2390,120,,,,,,,,,,,
94,Pu XLIX,Pu,XLIX,48,Plutonium,Pd,[Kr].4d10,4d10,1S0,4d9 2D<5/2>,2774,4,,,,,,,,,,,
94,Pu L,Pu,L,49,Plutonium,Rh,[Kr].4d9,4d9,2D<5/2>,4d8 3F<4>,2844,4,,,,,,,,,,,
94,Pu LI,Pu,LI,50,Plutonium,Ru,[Kr].4d8,4d8,3F<4>,4d7 4F<9/2>,2918,4,,,,,,,,,,,
94,Pu LII,Pu,LII,51,Plutonium,Tc,[Kr].4d7,4d7,4F<9/2>,4d6 5D<4>,2997,4,,,,,,,,,,,
94,Pu LIII,Pu,LIII,52,Plutonium,Mo,[Kr].4d6,4d6,5D<4>,"4d-4.4d+ (0,5/2)<5/2>",3072,4,,,,,,,,,,,
94,Pu LIV,Pu,LIV,53,Plutonium,Nb,[Kr].4d5,4d-4.4d+,"(0,5/2)<5/2>",4d4 5D<0>,3146,5,,,,,,,,,,,
94,Pu LV,Pu,LV,54,Plutonium,Zr,[Kr].4d4,4d4,5D0,4d3 4F<3/2>,3290,5,,,,,,,,,,,
94,Pu LVI,Pu,LVI,55,Plutonium,Y,[Kr].4d3,4d3,4F<3/2>,4d2 3F<2>,3366,5,,,,,,,,,,,
94,Pu LVII,Pu,LVII,56,Plutonium,Sr,[Kr].4d2,4d2,3F<2>,4d 2D<3/2>,3449,5,,,,,,,,,,,
94,Pu LVIII,Pu,LVIII,57,Plutonium,Rb,[Kr].4d,4d,2D<3/2>,4p6 1S<0>,3527,6,,,,,,,,,,,
94,Pu LIX,Pu,LIX,58,Plutonium,Kr,[Ar].3d10.4s2.4p6,4p6,1S0,4p5 2P*<3/2>,3836,6,,,,,,,,,,,
94,Pu LX,Pu,LX,59,Plutonium,Br,[Ar].3d10.4s2.4p5,4p5,2P*<3/2>,4p4 3P<2>,3911,7,,,,,,,,,,,
94,Pu LXI,Pu,LXI,60,Plutonium,Se,[Ar].3d10.4s2.4p4,4p4,3P<2>,"4p-2.4p+ (0,3/2)*<3/2>",3993,10,,,,,,,,,,,
94,Pu LXII,Pu,LXII,61,Plutonium,As,[Ar].3d10.4s2.4p3,4p-2.4p+,"(0,3/2)*<3/2>",4p2 3P<0>,4068,12,,,,,,,,,,,
94,Pu LXIII,Pu,LXIII,62,Plutonium,Ge,[Ar].3d10.4s2.4p2,4p2,3P0,4p 2P*<1/2>,4496,15,,,,,,,,,,,
94,Pu LXIV,Pu,LXIV,63,Plutonium,Ga,[Ar].3d10.4s2.4p,4p,2P*<1/2>,4s2 1S<0>,4585,19,,,,,,,,,,,
94,Pu LXV,Pu,LXV,64,Plutonium,Zn,[Ar].3d10.4s2,4s2,1S0,4s 2S<1/2>,4807,24,,,,,,,,,,,
94,Pu LXVI,Pu,LXVI,65,Plutonium,Cu,[Ar].3d10.4s,4s,2S<1/2>,3d10 1S<0>,4890,30,,,,,,,,,,,
94,Pu LXVII,Pu,LXVII,66,Plutonium,Ni,[Ar].3d10,3d10,1S0,3d9 2D<5/2>,7830,40,,,,,,,,,,,
94,Pu LXVIII,Pu,LXVIII,67,Plutonium,Co,[Ar].3d9,3d9,2D<5/2>,3d8 3F<4>,7990,40,,,,,,,,,,,
94,Pu LXIX,Pu,LXIX,68,Plutonium,Fe,[Ar].3d8,3d8,3F<4>,3d7 4F<9/2>,8170,50,,,,,,,,,,,
94,Pu LXX,Pu,LXX,69,Plutonium,Mn,[Ar].3d7,3d7,4F<9/2>,"3d-4.3d+2 (0,4)<4>",8360,50,,,,,,,,,,,
94,Pu LXXI,Pu,LXXI,70,Plutonium,Cr,[Ar].3d6,3d-4.3d+2,"(0,4)<4>","3d-4.3d+ (0,5/2)<5/2>",8540,60,,,,,,,,,,,
94,Pu LXXII,Pu,LXXII,71,Plutonium,V,[Ar].3d5,3d-4.3d+,"(0,5/2)<5/2>",3d4 5D<0>,8710,60,,,,,,,,,,,
94,Pu LXXIII,Pu,LXXIII,72,Plutonium,Ti,[Ar].3d4,3d4,5D0,3d3 4F<3/2>,9130,70,,,,,,,,,,,
94,Pu LXXIV,Pu,LXXIV,73,Plutonium,Sc,[Ar].3d3,3d3,4F<3/2>,3d2 3F<2>,9310,90,,,,,,,,,,,
94,Pu LXXV,Pu,LXXV,74,Plutonium,Ca,[Ar].3d2,3d2,3F<2>,3d 2D<3/2>,9520,90,,,,,,,,,,,
94,Pu LXXVI,Pu,LXXVI,75,Plutonium,K,[Ar].3d,3d,2D<3/2>,3p6 1S<0>,9700,100,,,,,,,,,,,
94,Pu LXXVII,Pu,LXXVII,76,Plutonium,Ar,[Ne].3s2.3p6,3p6,1S0,3p5 2P*<3/2>,10230,110,,,,,,,,,,,
94,Pu LXXVIII,Pu,LXXVIII,77,Plutonium,Cl,[Ne].3s2.3p5,3p5,2P*<3/2>,3p4 3P<2>,10390,120,,,,,,,,,,,
94,Pu LXXIX,Pu,LXXIX,78,Plutonium,S,[Ne].3s2.3p4,3p4,3P<2>,3p3 2P*<3/2>,10570,120,,,,,,,,,,,
94,Pu LXXX,Pu,LXXX,79,Plutonium,P,[Ne].3s2.3p3,3p3,2P*<3/2>,3p2 3P<0>,10730,140,,,,,,,,,,,
94,Pu LXXXI,Pu,LXXXI,80,Plutonium,Si,[Ne].3s2.3p2,3p2,3P0,3p 2P*<1/2>,12060,150,,,,,,,,,,,
94,Pu LXXXII,Pu,LXXXII,81,Plutonium,Al,[Ne].3s2.3p,3p,2P*<1/2>,3s2 1S<0>,12260,160,,,,,,,,,,,
94,Pu LXXXIII,Pu,LXXXIII,82,Plutonium,Mg,[Ne].3s2,3s2,1S0,3s 2S<1/2>,12660,170,,,,,,,,,,,
94,Pu LXXXIV,Pu,LXXXIV,83,Plutonium,Na,[Ne].3s,3s,2S<1/2>,2p6 1S<0>,12840,190,,,,,,,,,,,
94,Pu LXXXV,Pu,LXXXV,84,Plutonium,Ne,1s2.2s2.2p6,2p6,1S0,2p5 2P*<3/2>,26480,200,,,,,,,,,,,
94,Pu LXXXVI,Pu,LXXXVI,85,Plutonium,F,1s2.2s2.2p5,2p5,2P*<3/2>,2p4 3P<2>,26920,220,,,,,,,,,,,
94,Pu LXXXVII,Pu,LXXXVII,86,Plutonium,O,1s2.2s2.2p4,2p4,3P<2>,"2p2<1/2>.2p<3/2> (0,3/2)*<3/2>",27400,240,,,,,,,,,,,
94,Pu LXXXVIII,Pu,LXXXVIII,87,Plutonium,N,1s2.2s2.2p3,2p2<1/2>.2p<3/2>,"(0,3/2)*<3/2>",2p2 3P<0>,27840,250,,,,,,,,,,,
94,Pu LXXXIX,Pu,LXXXIX,88,Plutonium,C,1s2.2s2.2p2,2p2,3P0,2p 2P*<1/2>,32800,300,,,,,,,,,,,
94,Pu XC,Pu,XC,89,Plutonium,B,1s2.2s2.2p,2p,2P*<1/2>,2s2 1S<0>,33400,300,,,,,,,,,,,
94,Pu XCI,Pu,XCI,90,Plutonium,Be,1s2.2s2,2s2,1S0,2s 2S<1/2>,34100,300,,,,,,,,,,,
94,Pu XCII,Pu,XCII,91,Plutonium,Li,1s2.2s,1s2.2s,2S<1/2>,1s2 1S<0>,34625.8,0.7,,,,,,,,,,,
94,Pu XCIII,Pu,XCIII,92,Plutonium,He,1s2,1s2,1S0,1s 2S<1/2>,136305.1,2.4,,,,,,,,,,,
94,Pu XCIV,Pu,XCIV,93,Plutonium,H,1s,1s,2S<1/2>,,138640.2,2.5,,,,,,,,,,,
95,Am I,Am,I,0,Americium,Am,[Rn].5f7.7s2,5f7.7s2,8S*<7/2>,5f7.7s 9S*<4>,5.97381,0.00025,,,,,,,,,,,
95,Am II,Am,II,1,Americium,Pu,[Rn].5f7.7s,5f7.7s,9S*<4>,5f7 8S*<7/2>,11.7,0.4,,,,,,,,,,,
95,Am III,Am,III,2,Americium,Np,[Rn].5f7,5f7,8S*<7/2>,5f6 7F<0>,21.7,0.4,,,,,,,,,,,
95,Am IV,Am,IV,3,Americium,U,[Rn].5f6,5f6,7F0,5f5 6H*<5/2>,36.8,0.4,,,,,,,,,,,
95,Am V,Am,V,4,Americium,Pa,[Rn].5f5,5f5,6H*<5/2>,5f4 5I<4>,50,1.9,,,,,,,,,,,
95,Am VI,Am,VI,5,Americium,Th,[Rn].5f4,5f4,5I<4>,5f3.6p6 4I*<9/2>,67.9,2,,,,,,,,,,,
95,Am VII,Am,VII,6,Americium,Ac,[Rn].5f3,5f3.6p6,4I*<9/2>,5f3.6p5,95,5,,,,,,,,,,,
95,Am VIII,Am,VIII,7,Americium,Ra,[Hg].5f3.6p5,5f3.6p5,,5f3.6p4*,110,6,,,,,,,,,,,
95,Am IX,Am,IX,8,Americium,Fr,[Hg].5f3.6p4,5f3.6p4,*,5f3.6p3,125,6,,,,,,,,,,,
95,Am X,Am,X,9,Americium,Rn,[Hg].5f3.6p3,5f3.6p3,,5f3.6p2*,141,7,,,,,,,,,,,
95,Am XI,Am,XI,10,Americium,At,[Hg].5f3.6p2,5f3.6p2,*,5f2.6p2,163,8,,,,,,,,,,,
95,Am XII,Am,XII,11,Americium,Po,[Hg].5f2.6p2,5f2.6p2,,5f.6p2*,184,9,,,,,,,,,,,
95,Am XIII,Am,XIII,12,Americium,Bi,[Hg].5f.6p2,5f.6p2,*,6p2 3P<0>,206,10,,,,,,,,,,,
95,Am XIV,Am,XIV,13,Americium,Pb,[Hg].6p2,6p2,3P0,6p 2P*<1/2>,225,3,,,,,,,,,,,
95,Am XV,Am,XV,14,Americium,Tl,[Hg].6p,6p,2P*<1/2>,6s2 1S<0>,242,3,,,,,,,,,,,
95,Am XVI,Am,XVI,15,Americium,Hg,[Xe].4f14.5d10.6s2,6s2,1S0,6s 2S<1/2>,284,3,,,,,,,,,,,
95,Am XVII,Am,XVII,16,Americium,Au,[Xe].4f14.5d10.6s,6s,2S<1/2>,5d10 1S<0>,305,3,,,,,,,,,,,
95,Am XVIII,Am,XVIII,17,Americium,Pt,[Xe].4f14.5d10,5d10,1S0,5d9 2D<5/2>,424,3,,,,,,,,,,,
95,Am XIX,Am,XIX,18,Americium,Ir,[Xe].4f14.5d9,5d9,2D<5/2>,5d8 3F<4>,451,3,,,,,,,,,,,
95,Am XX,Am,XX,19,Americium,Os,[Xe].4f14.5d8,5d8,3F<4>,5d7 4F<9/2>,481,4,,,,,,,,,,,
95,Am XXI,Am,XXI,20,Americium,Re,[Xe].4f14.5d7,5d7,4F<9/2>,5d6 5D<4>,511,4,,,,,,,,,,,
95,Am XXII,Am,XXII,21,Americium,W,[Xe].4f14.5d6,5d6,5D<4>,5d5 6S<5/2>,541,4,,,,,,,,,,,
95,Am XXIII,Am,XXIII,22,Americium,Ta,[Xe].4f14.5d5,5d5,6S<5/2>,5d4 5D<0>,571,4,,,,,,,,,,,
95,Am XXIV,Am,XXIV,23,Americium,Hf,[Xe].4f14.5d4,5d4,5D0,5d3 4F<3/2>,616,4,,,,,,,,,,,
95,Am XXV,Am,XXV,24,Americium,Lu,[Xe].4f14.5d3,5d3,4F<3/2>,5d2 3F<2>,646,4,,,,,,,,,,,
95,Am XXVI,Am,XXVI,25,Americium,Yb,[Xe].4f14.5d2,5d2,3F<2>,5d 2D<3/2>,680,4,,,,,,,,,,,
95,Am XXVII,Am,XXVII,26,Americium,Tm,[Xe].4f14.5d,5d,2D<3/2>,4f14 1S<0>,711,4,,,,,,,,,,,
95,Am XXVIII,Am,XXVIII,27,Americium,Er,[Xe].4f14,4f14,1S0,4f14.5p5 2P*<3/2>,870,40,,,,,,,,,,,
95,Am XXIX,Am,XXIX,28,Americium,Ho,[Cd].4f14.5p5,4f14.5p5,2P*<3/2>,4f14.5p4 3P<2>,900,50,,,,,,,,,,,
95,Am XXX,Am,XXX,29,Americium,Dy,[Cd].4f14.5p4,4f14.5p4,3P<2>,4f14.5p3 2P*<3/2>,940,50,,,,,,,,,,,
95,Am XXXI,Am,XXXI,30,Americium,Tb,[Cd].4f14.5p3,4f14.5p3,2P*<3/2>,4f14.5p2 3P<0>,980,50,,,,,,,,,,,
95,Am XXXII,Am,XXXII,31,Americium,Gd,[Cd].4f14.5p2,4f14.5p2,3P0,4f14.5p 2P*<1/2>,1090,50,,,,,,,,,,,
95,Am XXXIII,Am,XXXIII,32,Americium,Eu,[Cd].4f14.5p,4f14.5p,2P*<1/2>,4f14 1S<0>,1130,60,,,,,,,,,,,
95,Am XXXIV,Am,XXXIV,33,Americium,Sm,[Cd].4f14,4f14,1S0,4f14.5s 2S<1/2>,1240,60,,,,,,,,,,,
95,Am XXXV,Am,XXXV,34,Americium,Pm,[Kr].4d10.4f14.5s,4f14.5s,2S<1/2>,4f14 1S<0>,1280,60,,,,,,,,,,,
95,Am XXXVI,Am,XXXVI,35,Americium,Nd,[Kr].4d10.4f14,4f14,1S0,4f13 2F*<7/2>,1410,70,,,,,,,,,,,
95,Am XXXVII,Am,XXXVII,36,Americium,Pr,[Kr].4d10.4f13,4f13,2F*<7/2>,4f12,1490,70,,,,,,,,,,,
95,Am XXXVIII,Am,XXXVIII,37,Americium,Ce,[Kr].4d10.4f12,4f12,,4f11 4I*<15/2>,1570,80,,,,,,,,,,,
95,Am XXXIX,Am,XXXIX,38,Americium,La,[Kr].4d10.4f11,4f11,4I*<15/2>,4f10 5I<8>,1650,90,,,,,,,,,,,
95,Am XL,Am,XL,39,Americium,Ba,[Kr].4d10.4f10,4f10,5I<8>,4f9 6H*<15/2>,1730,90,,,,,,,,,,,
95,Am XLI,Am,XLI,40,Americium,Cs,[Kr].4d10.4f9,4f9,6H*<15/2>,4f8 7F<6>,1820,90,,,,,,,,,,,
95,Am XLII,Am,XLII,41,Americium,Xe,[Kr].4d10.4f8,4f8,7F<6>,4f7 8S*<7/2>,1900,90,,,,,,,,,,,
95,Am XLIII,Am,XLIII,42,Americium,I,[Kr].4d10.4f7,4f7,8S*<7/2>,4f6 7F<0>,1980,100,,,,,,,,,,,
95,Am XLIV,Am,XLIV,43,Americium,Te,[Kr].4d10.4f6,4f6,7F0,4f5 6H*<5/2>,2070,100,,,,,,,,,,,
95,Am XLV,Am,XLV,44,Americium,Sb,[Kr].4d10.4f5,4f5,6H*<5/2>,4f4 5I<4>,2160,110,,,,,,,,,,,
95,Am XLVI,Am,XLVI,45,Americium,Sn,[Kr].4d10.4f4,4f4,5I<4>,4f3 4I*<9/2>,2240,110,,,,,,,,,,,
95,Am XLVII,Am,XLVII,46,Americium,In,[Kr].4d10.4f3,4f3,4I*<9/2>,4f2 3H<4>,2320,110,,,,,,,,,,,
95,Am XLVIII,Am,XLVIII,47,Americium,Cd,[Kr].4d10.4f2,4f2,3H<4>,4f 2F*<5/2>,2410,120,,,,,,,,,,,
95,Am XLIX,Am,XLIX,48,Americium,Ag,[Kr].4d10.4f,4f,2F*<5/2>,4d10 1S<0>,2480,120,,,,,,,,,,,
95,Am L,Am,L,49,Americium,Pd,[Kr].4d10,4d10,1S0,4d9 2D<5/2>,2874,4,,,,,,,,,,,
95,Am LI,Am,LI,50,Americium,Rh,[Kr].4d9,4d9,2D<5/2>,4d8 3F<4>,2946,4,,,,,,,,,,,
95,Am LII,Am,LII,51,Americium,Ru,[Kr].4d8,4d8,3F<4>,4d7 4F<9/2>,3021,4,,,,,,,,,,,
95,Am LIII,Am,LIII,52,Americium,Tc,[Kr].4d7,4d7,4F<9/2>,4d6 5D<4>,3101,4,,,,,,,,,,,
95,Am LIV,Am,LIV,53,Americium,Mo,[Kr].4d6,4d6,5D<4>,"4d-4.4d+ (0,5/2)<5/2>",3178,5,,,,,,,,,,,
95,Am LV,Am,LV,54,Americium,Nb,[Kr].4d5,4d-4.4d+,"(0,5/2)<5/2>",4d4 5D<0>,3251,5,,,,,,,,,,,
95,Am LVI,Am,LVI,55,Americium,Zr,[Kr].4d4,4d4,5D0,4d3 4F<3/2>,3402,5,,,,,,,,,,,
95,Am LVII,Am,LVII,56,Americium,Y,[Kr].4d3,4d3,4F<3/2>,4d2 3F<2>,3479,5,,,,,,,,,,,
95,Am LVIII,Am,LVIII,57,Americium,Sr,[Kr].4d2,4d2,3F<2>,4d 2D<3/2>,3563,6,,,,,,,,,,,
95,Am LIX,Am,LIX,58,Americium,Rb,[Kr].4d,4d,2D<3/2>,4p6 1S<0>,3641,6,,,,,,,,,,,
95,Am LX,Am,LX,59,Americium,Kr,[Ar].3d10.4s2.4p6,4p6,1S0,4p5 2P*<3/2>,3956,7,,,,,,,,,,,
95,Am LXI,Am,LXI,60,Americium,Br,[Ar].3d10.4s2.4p5,4p5,2P*<3/2>,4p4 3P<2>,4033,10,,,,,,,,,,,
95,Am LXII,Am,LXII,61,Americium,Se,[Ar].3d10.4s2.4p4,4p4,3P<2>,"4p-2.4p+ (0,3/2)*<3/2>",4115,12,,,,,,,,,,,
95,Am LXIII,Am,LXIII,62,Americium,As,[Ar].3d10.4s2.4p3,4p-2.4p+,"(0,3/2)*<3/2>",4p2 3P<0>,4191,15,,,,,,,,,,,
95,Am LXIV,Am,LXIV,63,Americium,Ge,[Ar].3d10.4s2.4p2,4p2,3P0,4p 2P*<1/2>,4642,19,,,,,,,,,,,
95,Am LXV,Am,LXV,64,Americium,Ga,[Ar].3d10.4s2.4p,4p,2P*<1/2>,4s2 1S<0>,4733,24,,,,,,,,,,,
95,Am LXVI,Am,LXVI,65,Americium,Zn,[Ar].3d10.4s2,4s2,1S0,4s 2S<1/2>,4960,30,,,,,,,,,,,
95,Am LXVII,Am,LXVII,66,Americium,Cu,[Ar].3d10.4s,4s,2S<1/2>,3d10 1S<0>,5050,40,,,,,,,,,,,
95,Am LXVIII,Am,LXVIII,67,Americium,Ni,[Ar].3d10,3d10,1S0,3d9 2D<5/2>,8040,40,,,,,,,,,,,
95,Am LXIX,Am,LXIX,68,Americium,Co,[Ar].3d9,3d9,2D<5/2>,3d8 3F<4>,8210,50,,,,,,,,,,,
95,Am LXX,Am,LXX,69,Americium,Fe,[Ar].3d8,3d8,3F<4>,3d7 4F<9/2>,8390,50,,,,,,,,,,,